LAMMPS data file. CGCMM style. atom_style full generated by VMD/TopoTools v1.5 on Thu May 02 10:49:13 IST 2019
 12674 atoms
 4660 bonds
 2330 angles
 0 dihedrals
 0 impropers
 3 atom types
 1 bond types
 1 angle types
 0 dihedral types
 0 improper types
  -41.4190 81.9490  xlo xhi
  -40.6100 79.7280  ylo yhi
  -52.0000 93.5800  zlo zhi

# Pair Coeffs
#
# 1  1HT
# 2  2OT
# 3  3CAL1

# Bond Coeffs
#
# 1  

# Angle Coeffs
#
# 1  unknown

 Masses

 1 1.007940 # 1HT
 2 15.999400 # 2OT
 3 12.010700 # 3CAL1

 Atoms

1 1 2 -0.847600 35.164001 33.894001 23.138000 # 2OT TIP3
2 1 1 0.423800 34.703999 33.050999 23.115999 # 1HT TIP3
3 1 1 0.423800 35.028999 34.358002 22.312000 # 1HT TIP3
4 2 2 -0.847600 20.167999 19.882999 22.281000 # 2OT TIP3
5 2 1 0.423800 20.287001 19.009001 22.659000 # 1HT TIP3
6 2 1 0.423800 19.237000 20.042999 22.122000 # 1HT TIP3
7 3 2 -0.847600 8.285000 5.568000 40.861000 # 2OT TIP3
8 3 1 0.423800 8.484000 4.880000 41.500000 # 1HT TIP3
9 3 1 0.423800 7.907000 5.178000 40.071999 # 1HT TIP3
10 4 2 -0.847600 29.299999 36.814999 24.416000 # 2OT TIP3
11 4 1 0.423800 30.209000 36.588001 24.209000 # 1HT TIP3
12 4 1 0.423800 29.159000 36.758999 25.362000 # 1HT TIP3
13 5 2 -0.847600 5.150000 29.115999 33.720001 # 2OT TIP3
14 5 1 0.423800 5.318000 28.438000 34.377998 # 1HT TIP3
15 5 1 0.423800 4.608000 28.757000 33.015999 # 1HT TIP3
16 6 2 -0.847600 7.290000 14.129000 18.481001 # 2OT TIP3
17 6 1 0.423800 6.479000 13.863000 18.920000 # 1HT TIP3
18 6 1 0.423800 7.149000 14.952000 18.011999 # 1HT TIP3
19 7 2 -0.847600 4.503000 23.423000 36.784000 # 2OT TIP3
20 7 1 0.423800 4.645000 24.278999 37.192001 # 1HT TIP3
21 7 1 0.423800 5.089000 23.320999 36.032001 # 1HT TIP3
22 8 2 -0.847600 14.173000 37.180000 29.950001 # 2OT TIP3
23 8 1 0.423800 14.253000 38.009998 29.473000 # 1HT TIP3
24 8 1 0.423800 15.013000 36.955002 30.351999 # 1HT TIP3
25 9 2 -0.847600 11.737000 35.778000 29.714001 # 2OT TIP3
26 9 1 0.423800 12.354000 36.029999 30.405001 # 1HT TIP3
27 9 1 0.423800 11.359000 34.921001 29.915001 # 1HT TIP3
28 10 2 -0.847600 23.629999 25.062000 12.837000 # 2OT TIP3
29 10 1 0.423800 22.910999 24.462999 13.049000 # 1HT TIP3
30 10 1 0.423800 23.299000 25.959000 12.781000 # 1HT TIP3
31 11 2 -0.847600 20.115000 2.807000 19.809000 # 2OT TIP3
32 11 1 0.423800 20.302000 3.648000 19.386999 # 1HT TIP3
33 11 1 0.423800 19.709999 2.956000 20.664000 # 1HT TIP3
34 12 2 -0.847600 13.000000 13.801000 29.334000 # 2OT TIP3
35 12 1 0.423800 13.450000 13.016000 29.013000 # 1HT TIP3
36 12 1 0.423800 13.611000 14.343000 29.834999 # 1HT TIP3
37 13 2 -0.847600 6.440000 27.783001 24.416000 # 2OT TIP3
38 13 1 0.423800 6.091000 26.934999 24.132000 # 1HT TIP3
39 13 1 0.423800 7.397000 27.747999 24.440001 # 1HT TIP3
40 14 2 -0.847600 26.593000 3.548000 5.383000 # 2OT TIP3
41 14 1 0.423800 26.333000 3.947000 4.549000 # 1HT TIP3
42 14 1 0.423800 27.396000 3.961000 5.703000 # 1HT TIP3
43 15 2 -0.847600 37.921001 18.628000 10.520000 # 2OT TIP3
44 15 1 0.423800 37.530998 19.386999 10.958000 # 1HT TIP3
45 15 1 0.423800 38.285999 18.893999 9.675000 # 1HT TIP3
46 16 2 -0.847600 13.228000 16.410999 24.615000 # 2OT TIP3
47 16 1 0.423800 12.428000 16.851999 24.320999 # 1HT TIP3
48 16 1 0.423800 13.203000 15.489000 24.358999 # 1HT TIP3
49 17 2 -0.847600 25.184999 30.298000 6.764000 # 2OT TIP3
50 17 1 0.423800 24.988001 29.542999 6.205000 # 1HT TIP3
51 17 1 0.423800 24.695999 31.063000 6.459000 # 1HT TIP3
52 18 2 -0.847600 1.095000 3.301000 20.764000 # 2OT TIP3
53 18 1 0.423800 0.625000 2.514000 20.479000 # 1HT TIP3
54 18 1 0.423800 0.482000 3.913000 21.174999 # 1HT TIP3
55 19 2 -0.847600 21.403999 32.970001 16.975000 # 2OT TIP3
56 19 1 0.423800 22.035999 33.073002 17.688999 # 1HT TIP3
57 19 1 0.423800 21.459000 33.720001 16.381001 # 1HT TIP3
58 20 2 -0.847600 1.731000 5.796000 20.997000 # 2OT TIP3
59 20 1 0.423800 1.899000 5.270000 20.212000 # 1HT TIP3
60 20 1 0.423800 0.815000 6.076000 21.009001 # 1HT TIP3
61 21 2 -0.847600 30.533001 27.715000 6.444000 # 2OT TIP3
62 21 1 0.423800 31.252001 27.396999 5.894000 # 1HT TIP3
63 21 1 0.423800 29.694000 27.468000 6.055000 # 1HT TIP3
64 22 2 -0.847600 0.632000 3.620000 34.180000 # 2OT TIP3
65 22 1 0.423800 1.521000 3.879000 33.928001 # 1HT TIP3
66 22 1 0.423800 0.500000 2.689000 33.993999 # 1HT TIP3
67 23 2 -0.847600 37.049000 24.438000 23.955000 # 2OT TIP3
68 23 1 0.423800 37.023998 23.726000 23.312000 # 1HT TIP3
69 23 1 0.423800 36.221001 24.919001 23.938000 # 1HT TIP3
70 24 2 -0.847600 14.864000 37.415001 37.943001 # 2OT TIP3
71 24 1 0.423800 15.283000 37.348000 38.804001 # 1HT TIP3
72 24 1 0.423800 15.514000 37.661999 37.284000 # 1HT TIP3
73 25 2 -0.847600 17.177000 33.839001 29.719999 # 2OT TIP3
74 25 1 0.423800 18.052000 33.492001 29.906000 # 1HT TIP3
75 25 1 0.423800 16.563000 33.116001 29.587000 # 1HT TIP3
76 26 2 -0.847600 6.120000 12.325000 20.627001 # 2OT TIP3
77 26 1 0.423800 6.200000 11.393000 20.409000 # 1HT TIP3
78 26 1 0.423800 6.757000 12.555000 21.304001 # 1HT TIP3
79 27 2 -0.847600 37.230999 7.083000 39.532001 # 2OT TIP3
80 27 1 0.423800 36.292999 6.908000 39.631001 # 1HT TIP3
81 27 1 0.423800 37.362999 7.976000 39.212002 # 1HT TIP3
82 28 2 -0.847600 8.898000 11.312000 19.014999 # 2OT TIP3
83 28 1 0.423800 8.011000 11.010000 19.221001 # 1HT TIP3
84 28 1 0.423800 8.881000 12.244000 18.797001 # 1HT TIP3
85 29 2 -0.847600 7.874000 9.114000 15.200000 # 2OT TIP3
86 29 1 0.423800 7.642000 9.872000 14.659000 # 1HT TIP3
87 29 1 0.423800 8.000000 8.345000 14.644000 # 1HT TIP3
88 30 2 -0.847600 34.997002 29.250999 37.446999 # 2OT TIP3
89 30 1 0.423800 34.528999 28.450001 37.692001 # 1HT TIP3
90 30 1 0.423800 34.370998 29.962999 37.312000 # 1HT TIP3
91 31 2 -0.847600 14.787000 15.909000 22.348000 # 2OT TIP3
92 31 1 0.423800 15.684000 16.224001 22.219000 # 1HT TIP3
93 31 1 0.423800 14.235000 16.624001 22.667999 # 1HT TIP3
94 32 2 -0.847600 3.098000 5.234000 17.378000 # 2OT TIP3
95 32 1 0.423800 2.930000 5.506000 18.283001 # 1HT TIP3
96 32 1 0.423800 2.393000 5.545000 16.809999 # 1HT TIP3
97 33 2 -0.847600 30.812000 21.601999 25.156000 # 2OT TIP3
98 33 1 0.423800 31.507000 22.264000 25.139999 # 1HT TIP3
99 33 1 0.423800 29.955999 22.031000 25.170000 # 1HT TIP3
100 34 2 -0.847600 34.290001 39.341000 35.514999 # 2OT TIP3
101 34 1 0.423800 34.930000 39.500000 34.818001 # 1HT TIP3
102 34 1 0.423800 34.334000 38.424999 35.792999 # 1HT TIP3
103 35 2 -0.847600 9.957000 36.068001 31.511999 # 2OT TIP3
104 35 1 0.423800 9.707000 36.203999 30.594999 # 1HT TIP3
105 35 1 0.423800 10.704000 36.626999 31.731001 # 1HT TIP3
106 36 2 -0.847600 1.292000 2.548000 4.322000 # 2OT TIP3
107 36 1 0.423800 0.500000 2.953000 3.961000 # 1HT TIP3
108 36 1 0.423800 1.053000 1.793000 4.861000 # 1HT TIP3
109 37 2 -0.847600 10.583000 2.539000 15.234000 # 2OT TIP3
110 37 1 0.423800 10.362000 2.045000 14.441000 # 1HT TIP3
111 37 1 0.423800 9.876000 2.456000 15.875000 # 1HT TIP3
112 38 2 -0.847600 8.988000 13.601000 21.284000 # 2OT TIP3
113 38 1 0.423800 9.724000 14.052000 20.865000 # 1HT TIP3
114 38 1 0.423800 8.922000 12.706000 20.947001 # 1HT TIP3
115 39 2 -0.847600 24.242001 1.831000 26.805000 # 2OT TIP3
116 39 1 0.423800 23.723000 2.574000 27.122999 # 1HT TIP3
117 39 1 0.423800 24.990999 2.151000 26.301001 # 1HT TIP3
118 40 2 -0.847600 29.186001 7.670000 22.740000 # 2OT TIP3
119 40 1 0.423800 29.162001 6.765000 22.423000 # 1HT TIP3
120 40 1 0.423800 28.351000 8.101000 22.554001 # 1HT TIP3
121 41 2 -0.847600 35.054001 20.895000 17.500000 # 2OT TIP3
122 41 1 0.423800 35.831001 21.215000 17.962999 # 1HT TIP3
123 41 1 0.423800 34.777000 20.056000 17.871000 # 1HT TIP3
124 42 2 -0.847600 36.393002 13.307000 6.033000 # 2OT TIP3
125 42 1 0.423800 36.627998 13.869000 5.291000 # 1HT TIP3
126 42 1 0.423800 36.353001 12.394000 5.748000 # 1HT TIP3
127 43 2 -0.847600 33.015999 24.591999 7.695000 # 2OT TIP3
128 43 1 0.423800 33.477001 24.308001 6.902000 # 1HT TIP3
129 43 1 0.423800 33.124001 25.537001 7.811000 # 1HT TIP3
130 44 2 -0.847600 28.933001 36.588001 40.488998 # 2OT TIP3
131 44 1 0.423800 28.499001 37.429001 40.645000 # 1HT TIP3
132 44 1 0.423800 28.958000 36.405998 39.549000 # 1HT TIP3
133 45 2 -0.847600 33.514999 35.714001 18.179001 # 2OT TIP3
134 45 1 0.423800 33.603001 36.243000 17.382999 # 1HT TIP3
135 45 1 0.423800 32.712002 35.957001 18.641001 # 1HT TIP3
136 46 2 -0.847600 8.745000 4.000000 18.715000 # 2OT TIP3
137 46 1 0.423800 8.188000 4.691000 19.079000 # 1HT TIP3
138 46 1 0.423800 9.383000 3.719000 19.372000 # 1HT TIP3
139 47 2 -0.847600 32.933998 22.371000 13.637000 # 2OT TIP3
140 47 1 0.423800 33.619999 22.798000 13.119000 # 1HT TIP3
141 47 1 0.423800 33.195999 21.474001 13.846000 # 1HT TIP3
142 48 2 -0.847600 39.500000 1.250000 9.956000 # 2OT TIP3
143 48 1 0.423800 38.737999 0.799000 10.327000 # 1HT TIP3
144 48 1 0.423800 39.216999 2.043000 9.499000 # 1HT TIP3
145 49 2 -0.847600 38.480000 5.654000 19.570999 # 2OT TIP3
146 49 1 0.423800 38.640999 6.317000 20.246000 # 1HT TIP3
147 49 1 0.423800 38.467999 4.783000 19.969000 # 1HT TIP3
148 50 2 -0.847600 16.252001 33.000999 18.375000 # 2OT TIP3
149 50 1 0.423800 15.860000 33.821999 18.068001 # 1HT TIP3
150 50 1 0.423800 15.657000 32.271999 18.197001 # 1HT TIP3
151 51 2 -0.847600 23.931000 23.393000 36.445999 # 2OT TIP3
152 51 1 0.423800 24.243000 23.847000 37.231998 # 1HT TIP3
153 51 1 0.423800 23.683001 24.033001 35.778999 # 1HT TIP3
154 52 2 -0.847600 1.860000 21.466999 40.071999 # 2OT TIP3
155 52 1 0.423800 0.984000 21.082001 39.999001 # 1HT TIP3
156 52 1 0.423800 1.788000 22.408001 40.231998 # 1HT TIP3
157 53 2 -0.847600 33.797001 33.838001 11.896000 # 2OT TIP3
158 53 1 0.423800 33.566002 33.181999 12.557000 # 1HT TIP3
159 53 1 0.423800 33.042000 34.402000 11.722000 # 1HT TIP3
160 54 2 -0.847600 15.395000 1.293000 13.376000 # 2OT TIP3
161 54 1 0.423800 15.895000 1.238000 14.193000 # 1HT TIP3
162 54 1 0.423800 15.541000 0.504000 12.853000 # 1HT TIP3
163 55 2 -0.847600 31.691999 25.197001 35.757000 # 2OT TIP3
164 55 1 0.423800 32.584999 24.868000 35.632000 # 1HT TIP3
165 55 1 0.423800 31.693001 26.153999 35.724998 # 1HT TIP3
166 56 2 -0.847600 32.631001 1.412000 9.780000 # 2OT TIP3
167 56 1 0.423800 33.053001 2.232000 10.047000 # 1HT TIP3
168 56 1 0.423800 33.294998 0.735000 9.644000 # 1HT TIP3
169 57 2 -0.847600 24.712999 23.591000 17.858999 # 2OT TIP3
170 57 1 0.423800 23.881001 23.316999 18.250000 # 1HT TIP3
171 57 1 0.423800 24.945000 23.000000 17.142000 # 1HT TIP3
172 58 2 -0.847600 26.110001 21.697001 22.197001 # 2OT TIP3
173 58 1 0.423800 25.202999 21.386999 22.141001 # 1HT TIP3
174 58 1 0.423800 26.155001 22.615000 21.927000 # 1HT TIP3
175 59 2 -0.847600 26.941000 22.018000 32.664001 # 2OT TIP3
176 59 1 0.423800 27.165001 22.073999 31.733000 # 1HT TIP3
177 59 1 0.423800 27.726000 22.159000 33.195000 # 1HT TIP3
178 60 2 -0.847600 23.264999 12.696000 20.789000 # 2OT TIP3
179 60 1 0.423800 22.610001 13.060000 20.188999 # 1HT TIP3
180 60 1 0.423800 23.955999 12.260000 20.288000 # 1HT TIP3
181 61 2 -0.847600 16.723000 28.445000 34.537998 # 2OT TIP3
182 61 1 0.423800 17.121000 27.573000 34.594002 # 1HT TIP3
183 61 1 0.423800 16.583000 28.794001 35.418999 # 1HT TIP3
184 62 2 -0.847600 33.437000 37.438000 8.248000 # 2OT TIP3
185 62 1 0.423800 33.176998 36.816002 7.566000 # 1HT TIP3
186 62 1 0.423800 32.879002 38.215000 8.209000 # 1HT TIP3
187 63 2 -0.847600 23.069000 17.563000 18.452000 # 2OT TIP3
188 63 1 0.423800 23.351000 16.667000 18.256001 # 1HT TIP3
189 63 1 0.423800 22.339001 17.805000 17.881001 # 1HT TIP3
190 64 2 -0.847600 33.916000 7.925000 13.480000 # 2OT TIP3
191 64 1 0.423800 34.047001 8.042000 14.424000 # 1HT TIP3
192 64 1 0.423800 33.077000 7.492000 13.321000 # 1HT TIP3
193 65 2 -0.847600 6.625000 34.327000 28.726000 # 2OT TIP3
194 65 1 0.423800 5.745000 34.551998 29.034000 # 1HT TIP3
195 65 1 0.423800 6.795000 33.396999 28.884001 # 1HT TIP3
196 66 2 -0.847600 12.100000 29.913000 15.787000 # 2OT TIP3
197 66 1 0.423800 12.569000 29.365999 15.153000 # 1HT TIP3
198 66 1 0.423800 11.272000 30.209999 15.409000 # 1HT TIP3
199 67 2 -0.847600 13.826000 6.628000 32.207001 # 2OT TIP3
200 67 1 0.423800 12.899000 6.838000 32.076000 # 1HT TIP3
201 67 1 0.423800 13.909000 5.778000 32.639999 # 1HT TIP3
202 68 2 -0.847600 14.488000 12.804000 4.852000 # 2OT TIP3
203 68 1 0.423800 14.707000 13.712000 4.628000 # 1HT TIP3
204 68 1 0.423800 14.396000 12.286000 4.052000 # 1HT TIP3
205 69 2 -0.847600 5.144000 1.772000 10.531000 # 2OT TIP3
206 69 1 0.423800 4.187000 1.724000 10.584000 # 1HT TIP3
207 69 1 0.423800 5.416000 2.680000 10.396000 # 1HT TIP3
208 70 2 -0.847600 32.412998 36.598999 37.699001 # 2OT TIP3
209 70 1 0.423800 31.875000 35.820000 37.537998 # 1HT TIP3
210 70 1 0.423800 33.332001 36.401001 37.516998 # 1HT TIP3
211 71 2 -0.847600 18.506001 22.389999 40.146999 # 2OT TIP3
212 71 1 0.423800 19.202999 22.232000 40.786999 # 1HT TIP3
213 71 1 0.423800 18.385000 21.612000 39.602001 # 1HT TIP3
214 72 2 -0.847600 11.684000 24.315001 41.505001 # 2OT TIP3
215 72 1 0.423800 11.219000 25.113001 41.244999 # 1HT TIP3
216 72 1 0.423800 11.225000 23.547001 41.165001 # 1HT TIP3
217 73 2 -0.847600 32.331001 22.903000 18.804001 # 2OT TIP3
218 73 1 0.423800 31.819000 23.042000 18.004000 # 1HT TIP3
219 73 1 0.423800 33.168999 23.361000 18.737000 # 1HT TIP3
220 74 2 -0.847600 17.629999 37.514000 40.875000 # 2OT TIP3
221 74 1 0.423800 16.846001 37.014000 40.640999 # 1HT TIP3
222 74 1 0.423800 17.447001 38.452000 40.813000 # 1HT TIP3
223 75 2 -0.847600 15.985000 1.459000 24.371000 # 2OT TIP3
224 75 1 0.423800 16.914000 1.659000 24.233999 # 1HT TIP3
225 75 1 0.423800 15.862000 0.510000 24.424000 # 1HT TIP3
226 76 2 -0.847600 0.672000 34.169998 11.089000 # 2OT TIP3
227 76 1 0.423800 1.613000 34.346001 11.028000 # 1HT TIP3
228 76 1 0.423800 0.500000 33.574001 11.819000 # 1HT TIP3
229 77 2 -0.847600 38.275002 9.368000 21.177000 # 2OT TIP3
230 77 1 0.423800 37.438999 9.773000 21.419001 # 1HT TIP3
231 77 1 0.423800 38.900002 10.046000 20.917000 # 1HT TIP3
232 78 2 -0.847600 15.148000 38.445000 20.266001 # 2OT TIP3
233 78 1 0.423800 15.039000 37.646000 20.787001 # 1HT TIP3
234 78 1 0.423800 16.016001 38.818001 20.422001 # 1HT TIP3
235 79 2 -0.847600 34.966000 19.523001 39.396000 # 2OT TIP3
236 79 1 0.423800 35.101002 18.625000 39.084000 # 1HT TIP3
237 79 1 0.423800 35.813000 19.952000 39.522999 # 1HT TIP3
238 80 2 -0.847600 26.716000 10.378000 26.511999 # 2OT TIP3
239 80 1 0.423800 26.281000 11.229000 26.605000 # 1HT TIP3
240 80 1 0.423800 27.658001 10.506000 26.399000 # 1HT TIP3
241 81 2 -0.847600 30.554001 5.328000 37.960999 # 2OT TIP3
242 81 1 0.423800 30.752001 6.254000 37.806000 # 1HT TIP3
243 81 1 0.423800 29.605000 5.201000 37.993000 # 1HT TIP3
244 82 2 -0.847600 24.464001 18.677000 40.348999 # 2OT TIP3
245 82 1 0.423800 24.403000 19.625999 40.216999 # 1HT TIP3
246 82 1 0.423800 23.589001 18.290001 40.327999 # 1HT TIP3
247 83 2 -0.847600 4.334000 23.642000 18.271999 # 2OT TIP3
248 83 1 0.423800 3.459000 23.299000 18.466999 # 1HT TIP3
249 83 1 0.423800 4.992000 23.146999 18.761000 # 1HT TIP3
250 84 2 -0.847600 11.087000 8.302000 24.898001 # 2OT TIP3
251 84 1 0.423800 10.637000 7.475000 24.709000 # 1HT TIP3
252 84 1 0.423800 11.056000 8.480000 25.837999 # 1HT TIP3
253 85 2 -0.847600 36.827999 27.486000 16.084000 # 2OT TIP3
254 85 1 0.423800 37.755001 27.333000 15.893000 # 1HT TIP3
255 85 1 0.423800 36.688999 28.410000 16.296000 # 1HT TIP3
256 86 2 -0.847600 18.350000 34.451000 9.683000 # 2OT TIP3
257 86 1 0.423800 18.238001 35.345001 10.013000 # 1HT TIP3
258 86 1 0.423800 19.156000 34.393002 9.169000 # 1HT TIP3
259 87 2 -0.847600 34.463001 10.457000 36.585999 # 2OT TIP3
260 87 1 0.423800 34.026001 9.608000 36.488998 # 1HT TIP3
261 87 1 0.423800 35.398998 10.324000 36.743000 # 1HT TIP3
262 88 2 -0.847600 16.322001 5.340000 30.858000 # 2OT TIP3
263 88 1 0.423800 15.443000 5.663000 31.069000 # 1HT TIP3
264 88 1 0.423800 16.601000 5.690000 30.011000 # 1HT TIP3
265 89 2 -0.847600 24.011999 31.305000 32.215000 # 2OT TIP3
266 89 1 0.423800 24.556000 31.143999 32.988998 # 1HT TIP3
267 89 1 0.423800 23.334999 30.631001 32.148998 # 1HT TIP3
268 90 2 -0.847600 15.230000 12.582000 37.896000 # 2OT TIP3
269 90 1 0.423800 15.543000 11.686000 38.040001 # 1HT TIP3
270 90 1 0.423800 14.837000 12.921000 38.701000 # 1HT TIP3
271 91 2 -0.847600 3.095000 23.799000 24.985001 # 2OT TIP3
272 91 1 0.423800 2.589000 23.358000 24.299999 # 1HT TIP3
273 91 1 0.423800 3.936000 24.089001 24.632000 # 1HT TIP3
274 92 2 -0.847600 39.325001 3.878000 28.766001 # 2OT TIP3
275 92 1 0.423800 39.469002 3.064000 29.254999 # 1HT TIP3
276 92 1 0.423800 38.742001 3.711000 28.024000 # 1HT TIP3
277 93 2 -0.847600 10.492000 35.993000 22.052000 # 2OT TIP3
278 93 1 0.423800 9.850000 35.578999 21.469999 # 1HT TIP3
279 93 1 0.423800 11.378000 35.798000 21.746000 # 1HT TIP3
280 94 2 -0.847600 16.025999 30.429001 33.894001 # 2OT TIP3
281 94 1 0.423800 15.703000 31.181999 33.395000 # 1HT TIP3
282 94 1 0.423800 16.902000 30.615999 34.233002 # 1HT TIP3
283 95 2 -0.847600 25.077000 28.120001 8.725000 # 2OT TIP3
284 95 1 0.423800 24.980000 28.657000 9.514000 # 1HT TIP3
285 95 1 0.423800 25.389000 27.246000 8.965000 # 1HT TIP3
286 96 2 -0.847600 26.561001 31.867001 15.063000 # 2OT TIP3
287 96 1 0.423800 26.636000 30.913000 15.132000 # 1HT TIP3
288 96 1 0.423800 26.792999 32.146999 14.177000 # 1HT TIP3
289 97 2 -0.847600 4.365000 21.186001 36.333000 # 2OT TIP3
290 97 1 0.423800 4.506000 20.556000 35.622002 # 1HT TIP3
291 97 1 0.423800 3.478000 21.544001 36.277000 # 1HT TIP3
292 98 2 -0.847600 16.146000 18.865000 34.992001 # 2OT TIP3
293 98 1 0.423800 16.938000 19.160000 34.537998 # 1HT TIP3
294 98 1 0.423800 15.888000 18.002001 34.666000 # 1HT TIP3
295 99 2 -0.847600 9.053000 23.521999 40.493999 # 2OT TIP3
296 99 1 0.423800 9.355000 23.792000 39.625000 # 1HT TIP3
297 99 1 0.423800 8.122000 23.725000 40.591999 # 1HT TIP3
298 100 2 -0.847600 38.916000 28.056000 28.351999 # 2OT TIP3
299 100 1 0.423800 38.556000 28.923000 28.150999 # 1HT TIP3
300 100 1 0.423800 38.208000 27.414000 28.402000 # 1HT TIP3
301 101 2 -0.847600 34.198002 14.519000 5.271000 # 2OT TIP3
302 101 1 0.423800 34.820000 14.973000 4.697000 # 1HT TIP3
303 101 1 0.423800 34.358002 13.576000 5.241000 # 1HT TIP3
304 102 2 -0.847600 5.661000 8.969000 8.388000 # 2OT TIP3
305 102 1 0.423800 4.704000 8.891000 8.402000 # 1HT TIP3
306 102 1 0.423800 5.908000 9.877000 8.208000 # 1HT TIP3
307 103 2 -0.847600 13.592000 34.334999 29.754000 # 2OT TIP3
308 103 1 0.423800 14.118000 34.956001 29.246000 # 1HT TIP3
309 103 1 0.423800 13.267000 33.639999 29.181000 # 1HT TIP3
310 104 2 -0.847600 8.278000 33.028999 39.556000 # 2OT TIP3
311 104 1 0.423800 8.403000 33.771000 40.152000 # 1HT TIP3
312 104 1 0.423800 7.617000 32.435001 39.911999 # 1HT TIP3
313 105 2 -0.847600 17.115999 31.138000 15.899000 # 2OT TIP3
314 105 1 0.423800 18.032000 31.082001 15.618000 # 1HT TIP3
315 105 1 0.423800 16.900000 32.043999 16.121000 # 1HT TIP3
316 106 2 -0.847600 32.047001 4.614000 16.819000 # 2OT TIP3
317 106 1 0.423800 32.234001 5.124000 17.610001 # 1HT TIP3
318 106 1 0.423800 31.309999 5.004000 16.348000 # 1HT TIP3
319 107 2 -0.847600 12.991000 17.024000 38.439999 # 2OT TIP3
320 107 1 0.423800 12.107000 17.398001 38.448002 # 1HT TIP3
321 107 1 0.423800 12.999000 16.201000 38.931000 # 1HT TIP3
322 108 2 -0.847600 36.020000 5.015000 29.625000 # 2OT TIP3
323 108 1 0.423800 36.816002 5.180000 30.135000 # 1HT TIP3
324 108 1 0.423800 36.056000 4.138000 29.240999 # 1HT TIP3
325 109 2 -0.847600 14.094000 1.979000 26.796000 # 2OT TIP3
326 109 1 0.423800 13.384000 2.460000 26.365000 # 1HT TIP3
327 109 1 0.423800 14.664000 1.582000 26.136000 # 1HT TIP3
328 110 2 -0.847600 21.900999 37.698002 31.548000 # 2OT TIP3
329 110 1 0.423800 21.521999 37.007000 31.000000 # 1HT TIP3
330 110 1 0.423800 22.535000 37.318001 32.157001 # 1HT TIP3
331 111 2 -0.847600 12.890000 7.609000 10.392000 # 2OT TIP3
332 111 1 0.423800 12.443000 7.093000 11.066000 # 1HT TIP3
333 111 1 0.423800 12.315000 7.720000 9.633000 # 1HT TIP3
334 112 2 -0.847600 34.387001 30.673000 6.219000 # 2OT TIP3
335 112 1 0.423800 33.622002 31.080000 6.632000 # 1HT TIP3
336 112 1 0.423800 35.063000 31.333000 6.066000 # 1HT TIP3
337 113 2 -0.847600 27.875999 26.778999 18.575001 # 2OT TIP3
338 113 1 0.423800 28.808001 26.816999 18.351000 # 1HT TIP3
339 113 1 0.423800 27.572001 27.646000 18.844999 # 1HT TIP3
340 114 2 -0.847600 10.687000 38.105999 33.992001 # 2OT TIP3
341 114 1 0.423800 11.521000 38.533001 33.783001 # 1HT TIP3
342 114 1 0.423800 10.792000 37.554001 34.766998 # 1HT TIP3
343 115 2 -0.847600 15.987000 3.216000 20.589001 # 2OT TIP3
344 115 1 0.423800 15.929000 4.166000 20.466000 # 1HT TIP3
345 115 1 0.423800 15.168000 2.886000 20.959999 # 1HT TIP3
346 116 2 -0.847600 8.602000 8.858000 12.592000 # 2OT TIP3
347 116 1 0.423800 9.512000 8.554000 12.605000 # 1HT TIP3
348 116 1 0.423800 8.168000 8.548000 11.797000 # 1HT TIP3
349 117 2 -0.847600 34.727001 25.729000 32.834999 # 2OT TIP3
350 117 1 0.423800 35.353001 26.319000 33.258999 # 1HT TIP3
351 117 1 0.423800 34.966999 24.819000 33.012001 # 1HT TIP3
352 118 2 -0.847600 6.953000 18.980000 8.700000 # 2OT TIP3
353 118 1 0.423800 7.777000 19.333000 9.044000 # 1HT TIP3
354 118 1 0.423800 6.996000 18.024000 8.673000 # 1HT TIP3
355 119 2 -0.847600 28.957001 13.763000 23.187000 # 2OT TIP3
356 119 1 0.423800 28.200001 13.635000 22.611000 # 1HT TIP3
357 119 1 0.423800 28.688000 13.667000 24.101000 # 1HT TIP3
358 120 2 -0.847600 20.745001 18.162001 27.900000 # 2OT TIP3
359 120 1 0.423800 20.121000 18.777000 28.291000 # 1HT TIP3
360 120 1 0.423800 21.624001 18.542999 27.908001 # 1HT TIP3
361 121 2 -0.847600 32.648998 18.471001 9.697000 # 2OT TIP3
362 121 1 0.423800 33.187000 19.247000 9.526000 # 1HT TIP3
363 121 1 0.423800 31.809999 18.735001 10.077000 # 1HT TIP3
364 122 2 -0.847600 32.435001 38.556999 18.216000 # 2OT TIP3
365 122 1 0.423800 33.219002 38.090000 18.511999 # 1HT TIP3
366 122 1 0.423800 32.605000 39.499001 18.200001 # 1HT TIP3
367 123 2 -0.847600 37.526001 11.335000 34.944000 # 2OT TIP3
368 123 1 0.423800 36.608002 11.354000 35.221001 # 1HT TIP3
369 123 1 0.423800 37.752998 12.160000 34.514999 # 1HT TIP3
370 124 2 -0.847600 7.808000 30.164000 25.860001 # 2OT TIP3
371 124 1 0.423800 8.601000 29.634001 25.754999 # 1HT TIP3
372 124 1 0.423800 7.685000 30.719000 25.089001 # 1HT TIP3
373 125 2 -0.847600 31.968000 5.356000 13.275000 # 2OT TIP3
374 125 1 0.423800 31.500000 5.152000 12.463000 # 1HT TIP3
375 125 1 0.423800 31.341000 5.571000 13.967000 # 1HT TIP3
376 126 2 -0.847600 15.801000 24.308001 16.399000 # 2OT TIP3
377 126 1 0.423800 16.461000 24.929001 16.084000 # 1HT TIP3
378 126 1 0.423800 15.874000 23.483999 15.915000 # 1HT TIP3
379 127 2 -0.847600 19.403000 28.899000 17.681000 # 2OT TIP3
380 127 1 0.423800 20.084000 28.226000 17.742001 # 1HT TIP3
381 127 1 0.423800 19.163000 29.198000 18.559000 # 1HT TIP3
382 128 2 -0.847600 22.586000 11.033000 11.605000 # 2OT TIP3
383 128 1 0.423800 21.841999 10.586000 11.195000 # 1HT TIP3
384 128 1 0.423800 23.384001 10.518000 11.478000 # 1HT TIP3
385 129 2 -0.847600 3.721000 17.028000 22.660000 # 2OT TIP3
386 129 1 0.423800 4.545000 16.590000 22.434999 # 1HT TIP3
387 129 1 0.423800 2.980000 16.500999 22.358000 # 1HT TIP3
388 130 2 -0.847600 30.980000 16.007000 24.671000 # 2OT TIP3
389 130 1 0.423800 30.170000 15.571000 24.945999 # 1HT TIP3
390 130 1 0.423800 30.794001 16.917000 24.436001 # 1HT TIP3
391 131 2 -0.847600 34.998001 9.478000 39.111000 # 2OT TIP3
392 131 1 0.423800 35.654999 9.276000 39.780998 # 1HT TIP3
393 131 1 0.423800 34.921001 8.744000 38.500999 # 1HT TIP3
394 132 2 -0.847600 12.007000 16.872000 9.642000 # 2OT TIP3
395 132 1 0.423800 11.592000 16.603001 8.820000 # 1HT TIP3
396 132 1 0.423800 12.086000 17.826000 9.669000 # 1HT TIP3
397 133 2 -0.847600 20.533001 26.540001 38.891998 # 2OT TIP3
398 133 1 0.423800 21.386000 26.214001 39.188000 # 1HT TIP3
399 133 1 0.423800 20.650999 27.113001 38.132999 # 1HT TIP3
400 134 2 -0.847600 30.789000 36.028999 14.742000 # 2OT TIP3
401 134 1 0.423800 30.240999 36.678001 15.189000 # 1HT TIP3
402 134 1 0.423800 31.594999 36.444000 14.431000 # 1HT TIP3
403 135 2 -0.847600 3.939000 5.287000 38.833000 # 2OT TIP3
404 135 1 0.423800 3.482000 4.730000 39.466999 # 1HT TIP3
405 135 1 0.423800 3.481000 5.264000 37.992001 # 1HT TIP3
406 136 2 -0.847600 31.259001 31.541000 18.493999 # 2OT TIP3
407 136 1 0.423800 31.358000 30.656000 18.138000 # 1HT TIP3
408 136 1 0.423800 30.347000 31.823000 18.412001 # 1HT TIP3
409 137 2 -0.847600 33.287998 1.250000 19.195000 # 2OT TIP3
410 137 1 0.423800 32.617001 0.666000 18.834000 # 1HT TIP3
411 137 1 0.423800 34.020000 0.733000 19.533001 # 1HT TIP3
412 138 2 -0.847600 31.839001 26.388000 23.802999 # 2OT TIP3
413 138 1 0.423800 31.188999 25.867001 23.327000 # 1HT TIP3
414 138 1 0.423800 32.105000 27.139000 23.271000 # 1HT TIP3
415 139 2 -0.847600 22.745001 27.708000 7.508000 # 2OT TIP3
416 139 1 0.423800 23.479000 27.649000 6.892000 # 1HT TIP3
417 139 1 0.423800 22.952999 28.337999 8.199000 # 1HT TIP3
418 140 2 -0.847600 16.320000 34.347000 23.283001 # 2OT TIP3
419 140 1 0.423800 17.059999 34.629002 22.740000 # 1HT TIP3
420 140 1 0.423800 15.810000 35.110001 23.556999 # 1HT TIP3
421 141 2 -0.847600 29.413000 3.238000 38.967999 # 2OT TIP3
422 141 1 0.423800 28.486000 3.482000 39.028999 # 1HT TIP3
423 141 1 0.423800 29.613001 2.942000 38.080002 # 1HT TIP3
424 142 2 -0.847600 8.552000 11.777000 11.253000 # 2OT TIP3
425 142 1 0.423800 7.926000 12.380000 11.659000 # 1HT TIP3
426 142 1 0.423800 9.228000 12.275000 10.791000 # 1HT TIP3
427 143 2 -0.847600 30.362000 13.200000 21.419001 # 2OT TIP3
428 143 1 0.423800 29.767000 12.452000 21.507999 # 1HT TIP3
429 143 1 0.423800 29.867001 13.980000 21.169001 # 1HT TIP3
430 144 2 -0.847600 28.753000 19.888000 11.281000 # 2OT TIP3
431 144 1 0.423800 27.971001 20.340000 10.957000 # 1HT TIP3
432 144 1 0.423800 29.044001 19.242001 10.637000 # 1HT TIP3
433 145 2 -0.847600 15.425000 34.220001 7.227000 # 2OT TIP3
434 145 1 0.423800 14.997000 33.702000 6.541000 # 1HT TIP3
435 145 1 0.423800 14.764000 34.655998 7.764000 # 1HT TIP3
436 146 2 -0.847600 3.237000 36.478001 29.422001 # 2OT TIP3
437 146 1 0.423800 4.181000 36.365002 29.294001 # 1HT TIP3
438 146 1 0.423800 3.043000 37.400002 29.598000 # 1HT TIP3
439 147 2 -0.847600 17.791000 29.431000 7.027000 # 2OT TIP3
440 147 1 0.423800 17.309000 30.259001 7.073000 # 1HT TIP3
441 147 1 0.423800 18.731001 29.598000 7.107000 # 1HT TIP3
442 148 2 -0.847600 34.948002 24.165001 40.946999 # 2OT TIP3
443 148 1 0.423800 34.744999 24.482000 40.063999 # 1HT TIP3
444 148 1 0.423800 34.169998 24.233999 41.502998 # 1HT TIP3
445 149 2 -0.847600 20.454000 32.174000 10.038000 # 2OT TIP3
446 149 1 0.423800 19.556000 32.162998 9.701000 # 1HT TIP3
447 149 1 0.423800 20.483000 32.652000 10.868000 # 1HT TIP3
448 150 2 -0.847600 17.297001 5.586000 24.591999 # 2OT TIP3
449 150 1 0.423800 17.153999 6.252000 23.916000 # 1HT TIP3
450 150 1 0.423800 17.495001 6.010000 25.427999 # 1HT TIP3
451 151 2 -0.847600 32.051998 11.347000 36.590000 # 2OT TIP3
452 151 1 0.423800 32.793999 11.847000 36.242001 # 1HT TIP3
453 151 1 0.423800 31.232000 11.700000 36.243000 # 1HT TIP3
454 152 2 -0.847600 25.479000 30.903999 23.108999 # 2OT TIP3
455 152 1 0.423800 25.273001 30.024000 22.787001 # 1HT TIP3
456 152 1 0.423800 25.575001 30.886000 24.062000 # 1HT TIP3
457 153 2 -0.847600 4.095000 17.355000 32.035999 # 2OT TIP3
458 153 1 0.423800 3.523000 17.931999 31.524000 # 1HT TIP3
459 153 1 0.423800 3.600000 16.593000 32.337002 # 1HT TIP3
460 154 2 -0.847600 4.337000 28.507000 16.799000 # 2OT TIP3
461 154 1 0.423800 4.800000 28.886000 17.549000 # 1HT TIP3
462 154 1 0.423800 3.410000 28.396999 17.011999 # 1HT TIP3
463 155 2 -0.847600 20.105000 11.758000 29.802999 # 2OT TIP3
464 155 1 0.423800 20.025999 10.945000 30.308001 # 1HT TIP3
465 155 1 0.423800 20.593000 12.408000 30.309000 # 1HT TIP3
466 156 2 -0.847600 32.439999 27.982000 31.129999 # 2OT TIP3
467 156 1 0.423800 33.185001 28.105000 30.538000 # 1HT TIP3
468 156 1 0.423800 31.676001 28.451000 30.792000 # 1HT TIP3
469 157 2 -0.847600 15.116000 34.851002 12.132000 # 2OT TIP3
470 157 1 0.423800 15.028000 34.560001 13.042000 # 1HT TIP3
471 157 1 0.423800 15.939000 34.523998 11.766000 # 1HT TIP3
472 158 2 -0.847600 6.105000 10.718000 33.866001 # 2OT TIP3
473 158 1 0.423800 5.829000 11.041000 34.727001 # 1HT TIP3
474 158 1 0.423800 6.957000 10.286000 33.938999 # 1HT TIP3
475 159 2 -0.847600 27.198000 28.025000 33.766998 # 2OT TIP3
476 159 1 0.423800 27.254999 27.523001 34.583000 # 1HT TIP3
477 159 1 0.423800 26.282000 28.226999 33.574001 # 1HT TIP3
478 160 2 -0.847600 15.325000 9.753000 14.383000 # 2OT TIP3
479 160 1 0.423800 15.168000 10.009000 15.295000 # 1HT TIP3
480 160 1 0.423800 15.343000 10.532000 13.826000 # 1HT TIP3
481 161 2 -0.847600 2.601000 6.395000 5.379000 # 2OT TIP3
482 161 1 0.423800 3.158000 5.649000 5.612000 # 1HT TIP3
483 161 1 0.423800 1.706000 6.094000 5.218000 # 1HT TIP3
484 162 2 -0.847600 28.250999 13.948000 19.677999 # 2OT TIP3
485 162 1 0.423800 27.747000 13.713000 20.459999 # 1HT TIP3
486 162 1 0.423800 27.983999 13.397000 18.941999 # 1HT TIP3
487 163 2 -0.847600 31.863001 7.945000 7.932000 # 2OT TIP3
488 163 1 0.423800 32.448002 7.246000 8.232000 # 1HT TIP3
489 163 1 0.423800 30.972000 7.778000 8.244000 # 1HT TIP3
490 164 2 -0.847600 15.192000 3.864000 26.187000 # 2OT TIP3
491 164 1 0.423800 14.551000 4.308000 26.746000 # 1HT TIP3
492 164 1 0.423800 14.827000 3.741000 25.309999 # 1HT TIP3
493 165 2 -0.847600 17.083000 18.000999 40.637001 # 2OT TIP3
494 165 1 0.423800 16.663000 18.028000 41.500000 # 1HT TIP3
495 165 1 0.423800 17.268000 18.892000 40.339001 # 1HT TIP3
496 166 2 -0.847600 7.948000 22.316000 16.561001 # 2OT TIP3
497 166 1 0.423800 7.294000 22.844000 16.099001 # 1HT TIP3
498 166 1 0.423800 8.705000 22.860001 16.783001 # 1HT TIP3
499 167 2 -0.847600 25.393000 8.327000 28.875000 # 2OT TIP3
500 167 1 0.423800 26.349001 8.248000 28.837000 # 1HT TIP3
501 167 1 0.423800 25.150999 9.077000 29.420000 # 1HT TIP3