LAMMPS data file. CGCMM style. atom_style full generated by VMD/TopoTools v1.5 on Mon Jun 06 22:49:01 IST 2022
 8928 atoms
 0 bonds
 0 angles
 0 dihedrals
 0 impropers
 1 atom types
 0 bond types
 0 angle types
 0 dihedral types
 0 improper types
  -76.5730 76.5730  xlo xhi
  -76.1330 76.1330  ylo yhi
  -50.0000 50.0000  zlo zhi

# Pair Coeffs
#
# 1  3CAL1

 Masses

 1 12.010700 # 3CAL1

 Atoms

1 1 1 0.000000 -75.153999 -75.523003 0.000000 # 3CAL1 GRA
2 2 1 0.000000 -75.862999 -74.294998 0.000000 # 3CAL1 GRA
3 3 1 0.000000 -73.736000 -75.523003 0.000000 # 3CAL1 GRA
4 4 1 0.000000 -73.027000 -74.294998 0.000000 # 3CAL1 GRA
5 5 1 0.000000 -70.900002 -75.523003 0.000000 # 3CAL1 GRA
6 6 1 0.000000 -71.609001 -74.294998 0.000000 # 3CAL1 GRA
7 7 1 0.000000 -69.482002 -75.523003 0.000000 # 3CAL1 GRA
8 8 1 0.000000 -68.773003 -74.294998 0.000000 # 3CAL1 GRA
9 9 1 0.000000 -66.646004 -75.523003 0.000000 # 3CAL1 GRA
10 10 1 0.000000 -67.355003 -74.294998 0.000000 # 3CAL1 GRA
11 11 1 0.000000 -65.227997 -75.523003 0.000000 # 3CAL1 GRA
12 12 1 0.000000 -64.518997 -74.294998 0.000000 # 3CAL1 GRA
13 13 1 0.000000 -62.391998 -75.523003 0.000000 # 3CAL1 GRA
14 14 1 0.000000 -63.101002 -74.294998 0.000000 # 3CAL1 GRA
15 15 1 0.000000 -60.973999 -75.523003 0.000000 # 3CAL1 GRA
16 16 1 0.000000 -60.264999 -74.294998 0.000000 # 3CAL1 GRA
17 17 1 0.000000 -58.138000 -75.523003 0.000000 # 3CAL1 GRA
18 18 1 0.000000 -58.847000 -74.294998 0.000000 # 3CAL1 GRA
19 19 1 0.000000 -56.720001 -75.523003 0.000000 # 3CAL1 GRA
20 20 1 0.000000 -56.011002 -74.294998 0.000000 # 3CAL1 GRA
21 21 1 0.000000 -53.883999 -75.523003 0.000000 # 3CAL1 GRA
22 22 1 0.000000 -54.592999 -74.294998 0.000000 # 3CAL1 GRA
23 23 1 0.000000 -52.466000 -75.523003 0.000000 # 3CAL1 GRA
24 24 1 0.000000 -51.757000 -74.294998 0.000000 # 3CAL1 GRA
25 25 1 0.000000 -49.630001 -75.523003 0.000000 # 3CAL1 GRA
26 26 1 0.000000 -50.339001 -74.294998 0.000000 # 3CAL1 GRA
27 27 1 0.000000 -48.212002 -75.523003 0.000000 # 3CAL1 GRA
28 28 1 0.000000 -47.502998 -74.294998 0.000000 # 3CAL1 GRA
29 29 1 0.000000 -45.375999 -75.523003 0.000000 # 3CAL1 GRA
30 30 1 0.000000 -46.084999 -74.294998 0.000000 # 3CAL1 GRA
31 31 1 0.000000 -43.958000 -75.523003 0.000000 # 3CAL1 GRA
32 32 1 0.000000 -43.249001 -74.294998 0.000000 # 3CAL1 GRA
33 33 1 0.000000 -41.122002 -75.523003 0.000000 # 3CAL1 GRA
34 34 1 0.000000 -41.831001 -74.294998 0.000000 # 3CAL1 GRA
35 35 1 0.000000 -39.703999 -75.523003 0.000000 # 3CAL1 GRA
36 36 1 0.000000 -38.994999 -74.294998 0.000000 # 3CAL1 GRA
37 37 1 0.000000 -36.868000 -75.523003 0.000000 # 3CAL1 GRA
38 38 1 0.000000 -37.577000 -74.294998 0.000000 # 3CAL1 GRA
39 39 1 0.000000 -35.450001 -75.523003 0.000000 # 3CAL1 GRA
40 40 1 0.000000 -34.741001 -74.294998 0.000000 # 3CAL1 GRA
41 41 1 0.000000 -32.613998 -75.523003 0.000000 # 3CAL1 GRA
42 42 1 0.000000 -33.323002 -74.294998 0.000000 # 3CAL1 GRA
43 43 1 0.000000 -31.195999 -75.523003 0.000000 # 3CAL1 GRA
44 44 1 0.000000 -30.487000 -74.294998 0.000000 # 3CAL1 GRA
45 45 1 0.000000 -28.360001 -75.523003 0.000000 # 3CAL1 GRA
46 46 1 0.000000 -29.069000 -74.294998 0.000000 # 3CAL1 GRA
47 47 1 0.000000 -26.941999 -75.523003 0.000000 # 3CAL1 GRA
48 48 1 0.000000 -26.233000 -74.294998 0.000000 # 3CAL1 GRA
49 49 1 0.000000 -24.106001 -75.523003 0.000000 # 3CAL1 GRA
50 50 1 0.000000 -24.815001 -74.294998 0.000000 # 3CAL1 GRA
51 51 1 0.000000 -22.688000 -75.523003 0.000000 # 3CAL1 GRA
52 52 1 0.000000 -21.979000 -74.294998 0.000000 # 3CAL1 GRA
53 53 1 0.000000 -19.851999 -75.523003 0.000000 # 3CAL1 GRA
54 54 1 0.000000 -20.561001 -74.294998 0.000000 # 3CAL1 GRA
55 55 1 0.000000 -18.434000 -75.523003 0.000000 # 3CAL1 GRA
56 56 1 0.000000 -17.725000 -74.294998 0.000000 # 3CAL1 GRA
57 57 1 0.000000 -15.598000 -75.523003 0.000000 # 3CAL1 GRA
58 58 1 0.000000 -16.306999 -74.294998 0.000000 # 3CAL1 GRA
59 59 1 0.000000 -14.180000 -75.523003 0.000000 # 3CAL1 GRA
60 60 1 0.000000 -13.471000 -74.294998 0.000000 # 3CAL1 GRA
61 61 1 0.000000 -11.344000 -75.523003 0.000000 # 3CAL1 GRA
62 62 1 0.000000 -12.053000 -74.294998 0.000000 # 3CAL1 GRA
63 63 1 0.000000 -9.926000 -75.523003 0.000000 # 3CAL1 GRA
64 64 1 0.000000 -9.217000 -74.294998 0.000000 # 3CAL1 GRA
65 65 1 0.000000 -7.090000 -75.523003 0.000000 # 3CAL1 GRA
66 66 1 0.000000 -7.799000 -74.294998 0.000000 # 3CAL1 GRA
67 67 1 0.000000 -5.672000 -75.523003 0.000000 # 3CAL1 GRA
68 68 1 0.000000 -4.963000 -74.294998 0.000000 # 3CAL1 GRA
69 69 1 0.000000 -2.836000 -75.523003 0.000000 # 3CAL1 GRA
70 70 1 0.000000 -3.545000 -74.294998 0.000000 # 3CAL1 GRA
71 71 1 0.000000 -1.418000 -75.523003 0.000000 # 3CAL1 GRA
72 72 1 0.000000 -0.709000 -74.294998 0.000000 # 3CAL1 GRA
73 73 1 0.000000 1.418000 -75.523003 0.000000 # 3CAL1 GRA
74 74 1 0.000000 0.709000 -74.294998 0.000000 # 3CAL1 GRA
75 75 1 0.000000 2.836000 -75.523003 0.000000 # 3CAL1 GRA
76 76 1 0.000000 3.545000 -74.294998 0.000000 # 3CAL1 GRA
77 77 1 0.000000 5.672000 -75.523003 0.000000 # 3CAL1 GRA
78 78 1 0.000000 4.963000 -74.294998 0.000000 # 3CAL1 GRA
79 79 1 0.000000 7.090000 -75.523003 0.000000 # 3CAL1 GRA
80 80 1 0.000000 7.799000 -74.294998 0.000000 # 3CAL1 GRA
81 81 1 0.000000 9.926000 -75.523003 0.000000 # 3CAL1 GRA
82 82 1 0.000000 9.217000 -74.294998 0.000000 # 3CAL1 GRA
83 83 1 0.000000 11.344000 -75.523003 0.000000 # 3CAL1 GRA
84 84 1 0.000000 12.053000 -74.294998 0.000000 # 3CAL1 GRA
85 85 1 0.000000 14.180000 -75.523003 0.000000 # 3CAL1 GRA
86 86 1 0.000000 13.471000 -74.294998 0.000000 # 3CAL1 GRA
87 87 1 0.000000 15.598000 -75.523003 0.000000 # 3CAL1 GRA
88 88 1 0.000000 16.306999 -74.294998 0.000000 # 3CAL1 GRA
89 89 1 0.000000 18.434000 -75.523003 0.000000 # 3CAL1 GRA
90 90 1 0.000000 17.725000 -74.294998 0.000000 # 3CAL1 GRA
91 91 1 0.000000 19.851999 -75.523003 0.000000 # 3CAL1 GRA
92 92 1 0.000000 20.561001 -74.294998 0.000000 # 3CAL1 GRA
93 93 1 0.000000 22.688000 -75.523003 0.000000 # 3CAL1 GRA
94 94 1 0.000000 21.979000 -74.294998 0.000000 # 3CAL1 GRA
95 95 1 0.000000 24.106001 -75.523003 0.000000 # 3CAL1 GRA
96 96 1 0.000000 24.815001 -74.294998 0.000000 # 3CAL1 GRA
97 97 1 0.000000 26.941999 -75.523003 0.000000 # 3CAL1 GRA
98 98 1 0.000000 26.233000 -74.294998 0.000000 # 3CAL1 GRA
99 99 1 0.000000 28.360001 -75.523003 0.000000 # 3CAL1 GRA
100 100 1 0.000000 29.069000 -74.294998 0.000000 # 3CAL1 GRA
101 101 1 0.000000 31.195999 -75.523003 0.000000 # 3CAL1 GRA
102 102 1 0.000000 30.487000 -74.294998 0.000000 # 3CAL1 GRA
103 103 1 0.000000 32.613998 -75.523003 0.000000 # 3CAL1 GRA
104 104 1 0.000000 33.323002 -74.294998 0.000000 # 3CAL1 GRA
105 105 1 0.000000 35.450001 -75.523003 0.000000 # 3CAL1 GRA
106 106 1 0.000000 34.741001 -74.294998 0.000000 # 3CAL1 GRA
107 107 1 0.000000 36.868000 -75.523003 0.000000 # 3CAL1 GRA
108 108 1 0.000000 37.577000 -74.294998 0.000000 # 3CAL1 GRA
109 109 1 0.000000 39.703999 -75.523003 0.000000 # 3CAL1 GRA
110 110 1 0.000000 38.994999 -74.294998 0.000000 # 3CAL1 GRA
111 111 1 0.000000 41.122002 -75.523003 0.000000 # 3CAL1 GRA
112 112 1 0.000000 41.831001 -74.294998 0.000000 # 3CAL1 GRA
113 113 1 0.000000 43.958000 -75.523003 0.000000 # 3CAL1 GRA
114 114 1 0.000000 43.249001 -74.294998 0.000000 # 3CAL1 GRA
115 115 1 0.000000 45.375999 -75.523003 0.000000 # 3CAL1 GRA
116 116 1 0.000000 46.084999 -74.294998 0.000000 # 3CAL1 GRA
117 117 1 0.000000 48.212002 -75.523003 0.000000 # 3CAL1 GRA
118 118 1 0.000000 47.502998 -74.294998 0.000000 # 3CAL1 GRA
119 119 1 0.000000 49.630001 -75.523003 0.000000 # 3CAL1 GRA
120 120 1 0.000000 50.339001 -74.294998 0.000000 # 3CAL1 GRA
121 121 1 0.000000 52.466000 -75.523003 0.000000 # 3CAL1 GRA
122 122 1 0.000000 51.757000 -74.294998 0.000000 # 3CAL1 GRA
123 123 1 0.000000 53.883999 -75.523003 0.000000 # 3CAL1 GRA
124 124 1 0.000000 54.592999 -74.294998 0.000000 # 3CAL1 GRA
125 125 1 0.000000 56.720001 -75.523003 0.000000 # 3CAL1 GRA
126 126 1 0.000000 56.011002 -74.294998 0.000000 # 3CAL1 GRA
127 127 1 0.000000 58.138000 -75.523003 0.000000 # 3CAL1 GRA
128 128 1 0.000000 58.847000 -74.294998 0.000000 # 3CAL1 GRA
129 129 1 0.000000 60.973999 -75.523003 0.000000 # 3CAL1 GRA
130 130 1 0.000000 60.264999 -74.294998 0.000000 # 3CAL1 GRA
131 131 1 0.000000 62.391998 -75.523003 0.000000 # 3CAL1 GRA
132 132 1 0.000000 63.101002 -74.294998 0.000000 # 3CAL1 GRA
133 133 1 0.000000 65.227997 -75.523003 0.000000 # 3CAL1 GRA
134 134 1 0.000000 64.518997 -74.294998 0.000000 # 3CAL1 GRA
135 135 1 0.000000 66.646004 -75.523003 0.000000 # 3CAL1 GRA
136 136 1 0.000000 67.355003 -74.294998 0.000000 # 3CAL1 GRA
137 137 1 0.000000 69.482002 -75.523003 0.000000 # 3CAL1 GRA
138 138 1 0.000000 68.773003 -74.294998 0.000000 # 3CAL1 GRA
139 139 1 0.000000 70.900002 -75.523003 0.000000 # 3CAL1 GRA
140 140 1 0.000000 71.609001 -74.294998 0.000000 # 3CAL1 GRA
141 141 1 0.000000 73.736000 -75.523003 0.000000 # 3CAL1 GRA
142 142 1 0.000000 73.027000 -74.294998 0.000000 # 3CAL1 GRA
143 143 1 0.000000 75.153999 -75.523003 0.000000 # 3CAL1 GRA
144 144 1 0.000000 75.862999 -74.294998 0.000000 # 3CAL1 GRA
145 145 1 0.000000 -75.153999 -73.067001 0.000000 # 3CAL1 GRA
146 146 1 0.000000 -75.862999 -71.838997 0.000000 # 3CAL1 GRA
147 147 1 0.000000 -73.736000 -73.067001 0.000000 # 3CAL1 GRA
148 148 1 0.000000 -73.027000 -71.838997 0.000000 # 3CAL1 GRA
149 149 1 0.000000 -70.900002 -73.067001 0.000000 # 3CAL1 GRA
150 150 1 0.000000 -71.609001 -71.838997 0.000000 # 3CAL1 GRA
151 151 1 0.000000 -69.482002 -73.067001 0.000000 # 3CAL1 GRA
152 152 1 0.000000 -68.773003 -71.838997 0.000000 # 3CAL1 GRA
153 153 1 0.000000 -66.646004 -73.067001 0.000000 # 3CAL1 GRA
154 154 1 0.000000 -67.355003 -71.838997 0.000000 # 3CAL1 GRA
155 155 1 0.000000 -65.227997 -73.067001 0.000000 # 3CAL1 GRA
156 156 1 0.000000 -64.518997 -71.838997 0.000000 # 3CAL1 GRA
157 157 1 0.000000 -62.391998 -73.067001 0.000000 # 3CAL1 GRA
158 158 1 0.000000 -63.101002 -71.838997 0.000000 # 3CAL1 GRA
159 159 1 0.000000 -60.973999 -73.067001 0.000000 # 3CAL1 GRA
160 160 1 0.000000 -60.264999 -71.838997 0.000000 # 3CAL1 GRA
161 161 1 0.000000 -58.138000 -73.067001 0.000000 # 3CAL1 GRA
162 162 1 0.000000 -58.847000 -71.838997 0.000000 # 3CAL1 GRA
163 163 1 0.000000 -56.720001 -73.067001 0.000000 # 3CAL1 GRA
164 164 1 0.000000 -56.011002 -71.838997 0.000000 # 3CAL1 GRA
165 165 1 0.000000 -53.883999 -73.067001 0.000000 # 3CAL1 GRA
166 166 1 0.000000 -54.592999 -71.838997 0.000000 # 3CAL1 GRA
167 167 1 0.000000 -52.466000 -73.067001 0.000000 # 3CAL1 GRA
168 168 1 0.000000 -51.757000 -71.838997 0.000000 # 3CAL1 GRA
169 169 1 0.000000 -49.630001 -73.067001 0.000000 # 3CAL1 GRA
170 170 1 0.000000 -50.339001 -71.838997 0.000000 # 3CAL1 GRA
171 171 1 0.000000 -48.212002 -73.067001 0.000000 # 3CAL1 GRA
172 172 1 0.000000 -47.502998 -71.838997 0.000000 # 3CAL1 GRA
173 173 1 0.000000 -45.375999 -73.067001 0.000000 # 3CAL1 GRA
174 174 1 0.000000 -46.084999 -71.838997 0.000000 # 3CAL1 GRA
175 175 1 0.000000 -43.958000 -73.067001 0.000000 # 3CAL1 GRA
176 176 1 0.000000 -43.249001 -71.838997 0.000000 # 3CAL1 GRA
177 177 1 0.000000 -41.122002 -73.067001 0.000000 # 3CAL1 GRA
178 178 1 0.000000 -41.831001 -71.838997 0.000000 # 3CAL1 GRA
179 179 1 0.000000 -39.703999 -73.067001 0.000000 # 3CAL1 GRA
180 180 1 0.000000 -38.994999 -71.838997 0.000000 # 3CAL1 GRA
181 181 1 0.000000 -36.868000 -73.067001 0.000000 # 3CAL1 GRA
182 182 1 0.000000 -37.577000 -71.838997 0.000000 # 3CAL1 GRA
183 183 1 0.000000 -35.450001 -73.067001 0.000000 # 3CAL1 GRA
184 184 1 0.000000 -34.741001 -71.838997 0.000000 # 3CAL1 GRA
185 185 1 0.000000 -32.613998 -73.067001 0.000000 # 3CAL1 GRA
186 186 1 0.000000 -33.323002 -71.838997 0.000000 # 3CAL1 GRA
187 187 1 0.000000 -31.195999 -73.067001 0.000000 # 3CAL1 GRA
188 188 1 0.000000 -30.487000 -71.838997 0.000000 # 3CAL1 GRA
189 189 1 0.000000 -28.360001 -73.067001 0.000000 # 3CAL1 GRA
190 190 1 0.000000 -29.069000 -71.838997 0.000000 # 3CAL1 GRA
191 191 1 0.000000 -26.941999 -73.067001 0.000000 # 3CAL1 GRA
192 192 1 0.000000 -26.233000 -71.838997 0.000000 # 3CAL1 GRA
193 193 1 0.000000 -24.106001 -73.067001 0.000000 # 3CAL1 GRA
194 194 1 0.000000 -24.815001 -71.838997 0.000000 # 3CAL1 GRA
195 195 1 0.000000 -22.688000 -73.067001 0.000000 # 3CAL1 GRA
196 196 1 0.000000 -21.979000 -71.838997 0.000000 # 3CAL1 GRA
197 197 1 0.000000 -19.851999 -73.067001 0.000000 # 3CAL1 GRA
198 198 1 0.000000 -20.561001 -71.838997 0.000000 # 3CAL1 GRA
199 199 1 0.000000 -18.434000 -73.067001 0.000000 # 3CAL1 GRA
200 200 1 0.000000 -17.725000 -71.838997 0.000000 # 3CAL1 GRA
201 201 1 0.000000 -15.598000 -73.067001 0.000000 # 3CAL1 GRA
202 202 1 0.000000 -16.306999 -71.838997 0.000000 # 3CAL1 GRA
203 203 1 0.000000 -14.180000 -73.067001 0.000000 # 3CAL1 GRA
204 204 1 0.000000 -13.471000 -71.838997 0.000000 # 3CAL1 GRA
205 205 1 0.000000 -11.344000 -73.067001 0.000000 # 3CAL1 GRA
206 206 1 0.000000 -12.053000 -71.838997 0.000000 # 3CAL1 GRA
207 207 1 0.000000 -9.926000 -73.067001 0.000000 # 3CAL1 GRA
208 208 1 0.000000 -9.217000 -71.838997 0.000000 # 3CAL1 GRA
209 209 1 0.000000 -7.090000 -73.067001 0.000000 # 3CAL1 GRA
210 210 1 0.000000 -7.799000 -71.838997 0.000000 # 3CAL1 GRA
211 211 1 0.000000 -5.672000 -73.067001 0.000000 # 3CAL1 GRA
212 212 1 0.000000 -4.963000 -71.838997 0.000000 # 3CAL1 GRA
213 213 1 0.000000 -2.836000 -73.067001 0.000000 # 3CAL1 GRA
214 214 1 0.000000 -3.545000 -71.838997 0.000000 # 3CAL1 GRA
215 215 1 0.000000 -1.418000 -73.067001 0.000000 # 3CAL1 GRA
216 216 1 0.000000 -0.709000 -71.838997 0.000000 # 3CAL1 GRA
217 217 1 0.000000 1.418000 -73.067001 0.000000 # 3CAL1 GRA
218 218 1 0.000000 0.709000 -71.838997 0.000000 # 3CAL1 GRA
219 219 1 0.000000 2.836000 -73.067001 0.000000 # 3CAL1 GRA
220 220 1 0.000000 3.545000 -71.838997 0.000000 # 3CAL1 GRA
221 221 1 0.000000 5.672000 -73.067001 0.000000 # 3CAL1 GRA
222 222 1 0.000000 4.963000 -71.838997 0.000000 # 3CAL1 GRA
223 223 1 0.000000 7.090000 -73.067001 0.000000 # 3CAL1 GRA
224 224 1 0.000000 7.799000 -71.838997 0.000000 # 3CAL1 GRA
225 225 1 0.000000 9.926000 -73.067001 0.000000 # 3CAL1 GRA
226 226 1 0.000000 9.217000 -71.838997 0.000000 # 3CAL1 GRA
227 227 1 0.000000 11.344000 -73.067001 0.000000 # 3CAL1 GRA
228 228 1 0.000000 12.053000 -71.838997 0.000000 # 3CAL1 GRA
229 229 1 0.000000 14.180000 -73.067001 0.000000 # 3CAL1 GRA
230 230 1 0.000000 13.471000 -71.838997 0.000000 # 3CAL1 GRA
231 231 1 0.000000 15.598000 -73.067001 0.000000 # 3CAL1 GRA
232 232 1 0.000000 16.306999 -71.838997 0.000000 # 3CAL1 GRA
233 233 1 0.000000 18.434000 -73.067001 0.000000 # 3CAL1 GRA
234 234 1 0.000000 17.725000 -71.838997 0.000000 # 3CAL1 GRA
235 235 1 0.000000 19.851999 -73.067001 0.000000 # 3CAL1 GRA
236 236 1 0.000000 20.561001 -71.838997 0.000000 # 3CAL1 GRA
237 237 1 0.000000 22.688000 -73.067001 0.000000 # 3CAL1 GRA
238 238 1 0.000000 21.979000 -71.838997 0.000000 # 3CAL1 GRA
239 239 1 0.000000 24.106001 -73.067001 0.000000 # 3CAL1 GRA
240 240 1 0.000000 24.815001 -71.838997 0.000000 # 3CAL1 GRA
241 241 1 0.000000 26.941999 -73.067001 0.000000 # 3CAL1 GRA
242 242 1 0.000000 26.233000 -71.838997 0.000000 # 3CAL1 GRA
243 243 1 0.000000 28.360001 -73.067001 0.000000 # 3CAL1 GRA
244 244 1 0.000000 29.069000 -71.838997 0.000000 # 3CAL1 GRA
245 245 1 0.000000 31.195999 -73.067001 0.000000 # 3CAL1 GRA
246 246 1 0.000000 30.487000 -71.838997 0.000000 # 3CAL1 GRA
247 247 1 0.000000 32.613998 -73.067001 0.000000 # 3CAL1 GRA
248 248 1 0.000000 33.323002 -71.838997 0.000000 # 3CAL1 GRA
249 249 1 0.000000 35.450001 -73.067001 0.000000 # 3CAL1 GRA
250 250 1 0.000000 34.741001 -71.838997 0.000000 # 3CAL1 GRA
251 251 1 0.000000 36.868000 -73.067001 0.000000 # 3CAL1 GRA
252 252 1 0.000000 37.577000 -71.838997 0.000000 # 3CAL1 GRA
253 253 1 0.000000 39.703999 -73.067001 0.000000 # 3CAL1 GRA
254 254 1 0.000000 38.994999 -71.838997 0.000000 # 3CAL1 GRA
255 255 1 0.000000 41.122002 -73.067001 0.000000 # 3CAL1 GRA
256 256 1 0.000000 41.831001 -71.838997 0.000000 # 3CAL1 GRA
257 257 1 0.000000 43.958000 -73.067001 0.000000 # 3CAL1 GRA
258 258 1 0.000000 43.249001 -71.838997 0.000000 # 3CAL1 GRA
259 259 1 0.000000 45.375999 -73.067001 0.000000 # 3CAL1 GRA
260 260 1 0.000000 46.084999 -71.838997 0.000000 # 3CAL1 GRA
261 261 1 0.000000 48.212002 -73.067001 0.000000 # 3CAL1 GRA
262 262 1 0.000000 47.502998 -71.838997 0.000000 # 3CAL1 GRA
263 263 1 0.000000 49.630001 -73.067001 0.000000 # 3CAL1 GRA
264 264 1 0.000000 50.339001 -71.838997 0.000000 # 3CAL1 GRA
265 265 1 0.000000 52.466000 -73.067001 0.000000 # 3CAL1 GRA
266 266 1 0.000000 51.757000 -71.838997 0.000000 # 3CAL1 GRA
267 267 1 0.000000 53.883999 -73.067001 0.000000 # 3CAL1 GRA
268 268 1 0.000000 54.592999 -71.838997 0.000000 # 3CAL1 GRA
269 269 1 0.000000 56.720001 -73.067001 0.000000 # 3CAL1 GRA
270 270 1 0.000000 56.011002 -71.838997 0.000000 # 3CAL1 GRA
271 271 1 0.000000 58.138000 -73.067001 0.000000 # 3CAL1 GRA
272 272 1 0.000000 58.847000 -71.838997 0.000000 # 3CAL1 GRA
273 273 1 0.000000 60.973999 -73.067001 0.000000 # 3CAL1 GRA
274 274 1 0.000000 60.264999 -71.838997 0.000000 # 3CAL1 GRA
275 275 1 0.000000 62.391998 -73.067001 0.000000 # 3CAL1 GRA
276 276 1 0.000000 63.101002 -71.838997 0.000000 # 3CAL1 GRA
277 277 1 0.000000 65.227997 -73.067001 0.000000 # 3CAL1 GRA
278 278 1 0.000000 64.518997 -71.838997 0.000000 # 3CAL1 GRA
279 279 1 0.000000 66.646004 -73.067001 0.000000 # 3CAL1 GRA
280 280 1 0.000000 67.355003 -71.838997 0.000000 # 3CAL1 GRA
281 281 1 0.000000 69.482002 -73.067001 0.000000 # 3CAL1 GRA
282 282 1 0.000000 68.773003 -71.838997 0.000000 # 3CAL1 GRA
283 283 1 0.000000 70.900002 -73.067001 0.000000 # 3CAL1 GRA
284 284 1 0.000000 71.609001 -71.838997 0.000000 # 3CAL1 GRA
285 285 1 0.000000 73.736000 -73.067001 0.000000 # 3CAL1 GRA
286 286 1 0.000000 73.027000 -71.838997 0.000000 # 3CAL1 GRA
287 287 1 0.000000 75.153999 -73.067001 0.000000 # 3CAL1 GRA
288 288 1 0.000000 75.862999 -71.838997 0.000000 # 3CAL1 GRA
289 289 1 0.000000 -75.153999 -70.611000 0.000000 # 3CAL1 GRA
290 290 1 0.000000 -75.862999 -69.383003 0.000000 # 3CAL1 GRA
291 291 1 0.000000 -73.736000 -70.611000 0.000000 # 3CAL1 GRA
292 292 1 0.000000 -73.027000 -69.383003 0.000000 # 3CAL1 GRA
293 293 1 0.000000 -70.900002 -70.611000 0.000000 # 3CAL1 GRA
294 294 1 0.000000 -71.609001 -69.383003 0.000000 # 3CAL1 GRA
295 295 1 0.000000 -69.482002 -70.611000 0.000000 # 3CAL1 GRA
296 296 1 0.000000 -68.773003 -69.383003 0.000000 # 3CAL1 GRA
297 297 1 0.000000 -66.646004 -70.611000 0.000000 # 3CAL1 GRA
298 298 1 0.000000 -67.355003 -69.383003 0.000000 # 3CAL1 GRA
299 299 1 0.000000 -65.227997 -70.611000 0.000000 # 3CAL1 GRA
300 300 1 0.000000 -64.518997 -69.383003 0.000000 # 3CAL1 GRA
301 301 1 0.000000 -62.391998 -70.611000 0.000000 # 3CAL1 GRA
302 302 1 0.000000 -63.101002 -69.383003 0.000000 # 3CAL1 GRA
303 303 1 0.000000 -60.973999 -70.611000 0.000000 # 3CAL1 GRA
304 304 1 0.000000 -60.264999 -69.383003 0.000000 # 3CAL1 GRA
305 305 1 0.000000 -58.138000 -70.611000 0.000000 # 3CAL1 GRA
306 306 1 0.000000 -58.847000 -69.383003 0.000000 # 3CAL1 GRA
307 307 1 0.000000 -56.720001 -70.611000 0.000000 # 3CAL1 GRA
308 308 1 0.000000 -56.011002 -69.383003 0.000000 # 3CAL1 GRA
309 309 1 0.000000 -53.883999 -70.611000 0.000000 # 3CAL1 GRA
310 310 1 0.000000 -54.592999 -69.383003 0.000000 # 3CAL1 GRA
311 311 1 0.000000 -52.466000 -70.611000 0.000000 # 3CAL1 GRA
312 312 1 0.000000 -51.757000 -69.383003 0.000000 # 3CAL1 GRA
313 313 1 0.000000 -49.630001 -70.611000 0.000000 # 3CAL1 GRA
314 314 1 0.000000 -50.339001 -69.383003 0.000000 # 3CAL1 GRA
315 315 1 0.000000 -48.212002 -70.611000 0.000000 # 3CAL1 GRA
316 316 1 0.000000 -47.502998 -69.383003 0.000000 # 3CAL1 GRA
317 317 1 0.000000 -45.375999 -70.611000 0.000000 # 3CAL1 GRA
318 318 1 0.000000 -46.084999 -69.383003 0.000000 # 3CAL1 GRA
319 319 1 0.000000 -43.958000 -70.611000 0.000000 # 3CAL1 GRA
320 320 1 0.000000 -43.249001 -69.383003 0.000000 # 3CAL1 GRA
321 321 1 0.000000 -41.122002 -70.611000 0.000000 # 3CAL1 GRA
322 322 1 0.000000 -41.831001 -69.383003 0.000000 # 3CAL1 GRA
323 323 1 0.000000 -39.703999 -70.611000 0.000000 # 3CAL1 GRA
324 324 1 0.000000 -38.994999 -69.383003 0.000000 # 3CAL1 GRA
325 325 1 0.000000 -36.868000 -70.611000 0.000000 # 3CAL1 GRA
326 326 1 0.000000 -37.577000 -69.383003 0.000000 # 3CAL1 GRA
327 327 1 0.000000 -35.450001 -70.611000 0.000000 # 3CAL1 GRA
328 328 1 0.000000 -34.741001 -69.383003 0.000000 # 3CAL1 GRA
329 329 1 0.000000 -32.613998 -70.611000 0.000000 # 3CAL1 GRA
330 330 1 0.000000 -33.323002 -69.383003 0.000000 # 3CAL1 GRA
331 331 1 0.000000 -31.195999 -70.611000 0.000000 # 3CAL1 GRA
332 332 1 0.000000 -30.487000 -69.383003 0.000000 # 3CAL1 GRA
333 333 1 0.000000 -28.360001 -70.611000 0.000000 # 3CAL1 GRA
334 334 1 0.000000 -29.069000 -69.383003 0.000000 # 3CAL1 GRA
335 335 1 0.000000 -26.941999 -70.611000 0.000000 # 3CAL1 GRA
336 336 1 0.000000 -26.233000 -69.383003 0.000000 # 3CAL1 GRA
337 337 1 0.000000 -24.106001 -70.611000 0.000000 # 3CAL1 GRA
338 338 1 0.000000 -24.815001 -69.383003 0.000000 # 3CAL1 GRA
339 339 1 0.000000 -22.688000 -70.611000 0.000000 # 3CAL1 GRA
340 340 1 0.000000 -21.979000 -69.383003 0.000000 # 3CAL1 GRA
341 341 1 0.000000 -19.851999 -70.611000 0.000000 # 3CAL1 GRA
342 342 1 0.000000 -20.561001 -69.383003 0.000000 # 3CAL1 GRA
343 343 1 0.000000 -18.434000 -70.611000 0.000000 # 3CAL1 GRA
344 344 1 0.000000 -17.725000 -69.383003 0.000000 # 3CAL1 GRA
345 345 1 0.000000 -15.598000 -70.611000 0.000000 # 3CAL1 GRA
346 346 1 0.000000 -16.306999 -69.383003 0.000000 # 3CAL1 GRA
347 347 1 0.000000 -14.180000 -70.611000 0.000000 # 3CAL1 GRA
348 348 1 0.000000 -13.471000 -69.383003 0.000000 # 3CAL1 GRA
349 349 1 0.000000 -11.344000 -70.611000 0.000000 # 3CAL1 GRA
350 350 1 0.000000 -12.053000 -69.383003 0.000000 # 3CAL1 GRA
351 351 1 0.000000 -9.926000 -70.611000 0.000000 # 3CAL1 GRA
352 352 1 0.000000 -9.217000 -69.383003 0.000000 # 3CAL1 GRA
353 353 1 0.000000 -7.090000 -70.611000 0.000000 # 3CAL1 GRA
354 354 1 0.000000 -7.799000 -69.383003 0.000000 # 3CAL1 GRA
355 355 1 0.000000 -5.672000 -70.611000 0.000000 # 3CAL1 GRA
356 356 1 0.000000 -4.963000 -69.383003 0.000000 # 3CAL1 GRA
357 357 1 0.000000 -2.836000 -70.611000 0.000000 # 3CAL1 GRA
358 358 1 0.000000 -3.545000 -69.383003 0.000000 # 3CAL1 GRA
359 359 1 0.000000 -1.418000 -70.611000 0.000000 # 3CAL1 GRA
360 360 1 0.000000 -0.709000 -69.383003 0.000000 # 3CAL1 GRA
361 361 1 0.000000 1.418000 -70.611000 0.000000 # 3CAL1 GRA
362 362 1 0.000000 0.709000 -69.383003 0.000000 # 3CAL1 GRA
363 363 1 0.000000 2.836000 -70.611000 0.000000 # 3CAL1 GRA
364 364 1 0.000000 3.545000 -69.383003 0.000000 # 3CAL1 GRA
365 365 1 0.000000 5.672000 -70.611000 0.000000 # 3CAL1 GRA
366 366 1 0.000000 4.963000 -69.383003 0.000000 # 3CAL1 GRA
367 367 1 0.000000 7.090000 -70.611000 0.000000 # 3CAL1 GRA
368 368 1 0.000000 7.799000 -69.383003 0.000000 # 3CAL1 GRA
369 369 1 0.000000 9.926000 -70.611000 0.000000 # 3CAL1 GRA
370 370 1 0.000000 9.217000 -69.383003 0.000000 # 3CAL1 GRA
371 371 1 0.000000 11.344000 -70.611000 0.000000 # 3CAL1 GRA
372 372 1 0.000000 12.053000 -69.383003 0.000000 # 3CAL1 GRA
373 373 1 0.000000 14.180000 -70.611000 0.000000 # 3CAL1 GRA
374 374 1 0.000000 13.471000 -69.383003 0.000000 # 3CAL1 GRA
375 375 1 0.000000 15.598000 -70.611000 0.000000 # 3CAL1 GRA
376 376 1 0.000000 16.306999 -69.383003 0.000000 # 3CAL1 GRA
377 377 1 0.000000 18.434000 -70.611000 0.000000 # 3CAL1 GRA
378 378 1 0.000000 17.725000 -69.383003 0.000000 # 3CAL1 GRA
379 379 1 0.000000 19.851999 -70.611000 0.000000 # 3CAL1 GRA
380 380 1 0.000000 20.561001 -69.383003 0.000000 # 3CAL1 GRA
381 381 1 0.000000 22.688000 -70.611000 0.000000 # 3CAL1 GRA
382 382 1 0.000000 21.979000 -69.383003 0.000000 # 3CAL1 GRA
383 383 1 0.000000 24.106001 -70.611000 0.000000 # 3CAL1 GRA
384 384 1 0.000000 24.815001 -69.383003 0.000000 # 3CAL1 GRA
385 385 1 0.000000 26.941999 -70.611000 0.000000 # 3CAL1 GRA
386 386 1 0.000000 26.233000 -69.383003 0.000000 # 3CAL1 GRA
387 387 1 0.000000 28.360001 -70.611000 0.000000 # 3CAL1 GRA
388 388 1 0.000000 29.069000 -69.383003 0.000000 # 3CAL1 GRA
389 389 1 0.000000 31.195999 -70.611000 0.000000 # 3CAL1 GRA
390 390 1 0.000000 30.487000 -69.383003 0.000000 # 3CAL1 GRA
391 391 1 0.000000 32.613998 -70.611000 0.000000 # 3CAL1 GRA
392 392 1 0.000000 33.323002 -69.383003 0.000000 # 3CAL1 GRA
393 393 1 0.000000 35.450001 -70.611000 0.000000 # 3CAL1 GRA
394 394 1 0.000000 34.741001 -69.383003 0.000000 # 3CAL1 GRA
395 395 1 0.000000 36.868000 -70.611000 0.000000 # 3CAL1 GRA
396 396 1 0.000000 37.577000 -69.383003 0.000000 # 3CAL1 GRA
397 397 1 0.000000 39.703999 -70.611000 0.000000 # 3CAL1 GRA
398 398 1 0.000000 38.994999 -69.383003 0.000000 # 3CAL1 GRA
399 399 1 0.000000 41.122002 -70.611000 0.000000 # 3CAL1 GRA
400 400 1 0.000000 41.831001 -69.383003 0.000000 # 3CAL1 GRA
401 401 1 0.000000 43.958000 -70.611000 0.000000 # 3CAL1 GRA
402 402 1 0.000000 43.249001 -69.383003 0.000000 # 3CAL1 GRA
403 403 1 0.000000 45.375999 -70.611000 0.000000 # 3CAL1 GRA
404 404 1 0.000000 46.084999 -69.383003 0.000000 # 3CAL1 GRA
405 405 1 0.000000 48.212002 -70.611000 0.000000 # 3CAL1 GRA
406 406 1 0.000000 47.502998 -69.383003 0.000000 # 3CAL1 GRA
407 407 1 0.000000 49.630001 -70.611000 0.000000 # 3CAL1 GRA
408 408 1 0.000000 50.339001 -69.383003 0.000000 # 3CAL1 GRA
409 409 1 0.000000 52.466000 -70.611000 0.000000 # 3CAL1 GRA
410 410 1 0.000000 51.757000 -69.383003 0.000000 # 3CAL1 GRA
411 411 1 0.000000 53.883999 -70.611000 0.000000 # 3CAL1 GRA
412 412 1 0.000000 54.592999 -69.383003 0.000000 # 3CAL1 GRA
413 413 1 0.000000 56.720001 -70.611000 0.000000 # 3CAL1 GRA
414 414 1 0.000000 56.011002 -69.383003 0.000000 # 3CAL1 GRA
415 415 1 0.000000 58.138000 -70.611000 0.000000 # 3CAL1 GRA
416 416 1 0.000000 58.847000 -69.383003 0.000000 # 3CAL1 GRA
417 417 1 0.000000 60.973999 -70.611000 0.000000 # 3CAL1 GRA
418 418 1 0.000000 60.264999 -69.383003 0.000000 # 3CAL1 GRA
419 419 1 0.000000 62.391998 -70.611000 0.000000 # 3CAL1 GRA
420 420 1 0.000000 63.101002 -69.383003 0.000000 # 3CAL1 GRA
421 421 1 0.000000 65.227997 -70.611000 0.000000 # 3CAL1 GRA
422 422 1 0.000000 64.518997 -69.383003 0.000000 # 3CAL1 GRA
423 423 1 0.000000 66.646004 -70.611000 0.000000 # 3CAL1 GRA
424 424 1 0.000000 67.355003 -69.383003 0.000000 # 3CAL1 GRA
425 425 1 0.000000 69.482002 -70.611000 0.000000 # 3CAL1 GRA
426 426 1 0.000000 68.773003 -69.383003 0.000000 # 3CAL1 GRA
427 427 1 0.000000 70.900002 -70.611000 0.000000 # 3CAL1 GRA
428 428 1 0.000000 71.609001 -69.383003 0.000000 # 3CAL1 GRA
429 429 1 0.000000 73.736000 -70.611000 0.000000 # 3CAL1 GRA
430 430 1 0.000000 73.027000 -69.383003 0.000000 # 3CAL1 GRA
431 431 1 0.000000 75.153999 -70.611000 0.000000 # 3CAL1 GRA
432 432 1 0.000000 75.862999 -69.383003 0.000000 # 3CAL1 GRA
433 433 1 0.000000 -75.153999 -68.154999 0.000000 # 3CAL1 GRA
434 434 1 0.000000 -75.862999 -66.927002 0.000000 # 3CAL1 GRA
435 435 1 0.000000 -73.736000 -68.154999 0.000000 # 3CAL1 GRA
436 436 1 0.000000 -73.027000 -66.927002 0.000000 # 3CAL1 GRA
437 437 1 0.000000 -70.900002 -68.154999 0.000000 # 3CAL1 GRA
438 438 1 0.000000 -71.609001 -66.927002 0.000000 # 3CAL1 GRA
439 439 1 0.000000 -69.482002 -68.154999 0.000000 # 3CAL1 GRA
440 440 1 0.000000 -68.773003 -66.927002 0.000000 # 3CAL1 GRA
441 441 1 0.000000 -66.646004 -68.154999 0.000000 # 3CAL1 GRA
442 442 1 0.000000 -67.355003 -66.927002 0.000000 # 3CAL1 GRA
443 443 1 0.000000 -65.227997 -68.154999 0.000000 # 3CAL1 GRA
444 444 1 0.000000 -64.518997 -66.927002 0.000000 # 3CAL1 GRA
445 445 1 0.000000 -62.391998 -68.154999 0.000000 # 3CAL1 GRA
446 446 1 0.000000 -63.101002 -66.927002 0.000000 # 3CAL1 GRA
447 447 1 0.000000 -60.973999 -68.154999 0.000000 # 3CAL1 GRA
448 448 1 0.000000 -60.264999 -66.927002 0.000000 # 3CAL1 GRA
449 449 1 0.000000 -58.138000 -68.154999 0.000000 # 3CAL1 GRA
450 450 1 0.000000 -58.847000 -66.927002 0.000000 # 3CAL1 GRA
451 451 1 0.000000 -56.720001 -68.154999 0.000000 # 3CAL1 GRA
452 452 1 0.000000 -56.011002 -66.927002 0.000000 # 3CAL1 GRA
453 453 1 0.000000 -53.883999 -68.154999 0.000000 # 3CAL1 GRA
454 454 1 0.000000 -54.592999 -66.927002 0.000000 # 3CAL1 GRA
455 455 1 0.000000 -52.466000 -68.154999 0.000000 # 3CAL1 GRA
456 456 1 0.000000 -51.757000 -66.927002 0.000000 # 3CAL1 GRA
457 457 1 0.000000 -49.630001 -68.154999 0.000000 # 3CAL1 GRA
458 458 1 0.000000 -50.339001 -66.927002 0.000000 # 3CAL1 GRA
459 459 1 0.000000 -48.212002 -68.154999 0.000000 # 3CAL1 GRA
460 460 1 0.000000 -47.502998 -66.927002 0.000000 # 3CAL1 GRA
461 461 1 0.000000 -45.375999 -68.154999 0.000000 # 3CAL1 GRA
462 462 1 0.000000 -46.084999 -66.927002 0.000000 # 3CAL1 GRA
463 463 1 0.000000 -43.958000 -68.154999 0.000000 # 3CAL1 GRA
464 464 1 0.000000 -43.249001 -66.927002 0.000000 # 3CAL1 GRA
465 465 1 0.000000 -41.122002 -68.154999 0.000000 # 3CAL1 GRA
466 466 1 0.000000 -41.831001 -66.927002 0.000000 # 3CAL1 GRA
467 467 1 0.000000 -39.703999 -68.154999 0.000000 # 3CAL1 GRA
468 468 1 0.000000 -38.994999 -66.927002 0.000000 # 3CAL1 GRA
469 469 1 0.000000 -36.868000 -68.154999 0.000000 # 3CAL1 GRA
470 470 1 0.000000 -37.577000 -66.927002 0.000000 # 3CAL1 GRA
471 471 1 0.000000 -35.450001 -68.154999 0.000000 # 3CAL1 GRA
472 472 1 0.000000 -34.741001 -66.927002 0.000000 # 3CAL1 GRA
473 473 1 0.000000 -32.613998 -68.154999 0.000000 # 3CAL1 GRA
474 474 1 0.000000 -33.323002 -66.927002 0.000000 # 3CAL1 GRA
475 475 1 0.000000 -31.195999 -68.154999 0.000000 # 3CAL1 GRA
476 476 1 0.000000 -30.487000 -66.927002 0.000000 # 3CAL1 GRA
477 477 1 0.000000 -28.360001 -68.154999 0.000000 # 3CAL1 GRA
478 478 1 0.000000 -29.069000 -66.927002 0.000000 # 3CAL1 GRA
479 479 1 0.000000 -26.941999 -68.154999 0.000000 # 3CAL1 GRA
480 480 1 0.000000 -26.233000 -66.927002 0.000000 # 3CAL1 GRA
481 481 1 0.000000 -24.106001 -68.154999 0.000000 # 3CAL1 GRA
482 482 1 0.000000 -24.815001 -66.927002 0.000000 # 3CAL1 GRA
483 483 1 0.000000 -22.688000 -68.154999 0.000000 # 3CAL1 GRA
484 484 1 0.000000 -21.979000 -66.927002 0.000000 # 3CAL1 GRA
485 485 1 0.000000 -19.851999 -68.154999 0.000000 # 3CAL1 GRA