LAMMPS data file. CGCMM style. atom_style full generated by VMD/TopoTools v1.5 on Tue May 31 17:31:16 IST 2022
 15918 atoms
 4660 bonds
 2330 angles
 0 dihedrals
 0 impropers
 3 atom types
 1 bond types
 1 angle types
 0 dihedral types
 0 improper types
  -76.5730 76.5730  xlo xhi
  -76.1330 76.1330  ylo yhi
  -50.0000 50.0000  zlo zhi

# Pair Coeffs
#
# 1  1HT
# 2  2OT
# 3  3CAL1

# Bond Coeffs
#
# 1  

# Angle Coeffs
#
# 1  unknown

 Masses

 1 1.007940 # 1HT
 2 15.999400 # 2OT
 3 12.010700 # 3CAL1

 Atoms

1 1 2 -0.847600 -11.562000 5.468000 11.980000 # 2OT TIP3
2 1 1 0.423800 -11.968000 6.295000 11.711000 # 1HT TIP3
3 1 1 0.423800 -11.041000 5.604000 12.772000 # 1HT TIP3
4 2 2 -0.847600 -7.964000 -14.073000 25.184000 # 2OT TIP3
5 2 1 0.423800 -7.565000 -14.335000 24.351000 # 1HT TIP3
6 2 1 0.423800 -8.851000 -13.747000 25.028999 # 1HT TIP3
7 3 2 -0.847600 -4.164000 -12.415000 20.364000 # 2OT TIP3
8 3 1 0.423800 -4.682000 -11.626000 20.188999 # 1HT TIP3
9 3 1 0.423800 -4.745000 -13.172000 20.450001 # 1HT TIP3
10 4 2 -0.847600 -19.396999 14.998000 24.802999 # 2OT TIP3
11 4 1 0.423800 -19.117001 15.875000 24.532000 # 1HT TIP3
12 4 1 0.423800 -19.070000 14.811000 25.684000 # 1HT TIP3
13 5 2 -0.847600 3.971000 1.514000 7.985000 # 2OT TIP3
14 5 1 0.423800 4.319000 2.146000 7.352000 # 1HT TIP3
15 5 1 0.423800 3.025000 1.634000 8.076000 # 1HT TIP3
16 6 2 -0.847600 -11.297000 -15.385000 11.339000 # 2OT TIP3
17 6 1 0.423800 -11.185000 -14.472000 11.066000 # 1HT TIP3
18 6 1 0.423800 -12.221000 -15.558000 11.522000 # 1HT TIP3
19 7 2 -0.847600 -9.614000 3.157000 11.398000 # 2OT TIP3
20 7 1 0.423800 -10.077000 3.827000 11.904000 # 1HT TIP3
21 7 1 0.423800 -9.532000 2.356000 11.917000 # 1HT TIP3
22 8 2 -0.847600 3.687000 3.177000 21.110001 # 2OT TIP3
23 8 1 0.423800 3.456000 3.514000 21.978001 # 1HT TIP3
24 8 1 0.423800 4.626000 2.989000 21.075001 # 1HT TIP3
25 9 2 -0.847600 -10.817000 12.203000 30.974001 # 2OT TIP3
26 9 1 0.423800 -11.410000 12.933000 30.783001 # 1HT TIP3
27 9 1 0.423800 -9.948000 12.540000 31.191999 # 1HT TIP3
28 10 2 -0.847600 -11.077000 12.067000 28.385000 # 2OT TIP3
29 10 1 0.423800 -10.367000 11.664000 28.889000 # 1HT TIP3
30 10 1 0.423800 -11.178000 11.614000 27.547001 # 1HT TIP3
31 11 2 -0.847600 19.858999 12.364000 35.953999 # 2OT TIP3
32 11 1 0.423800 19.118000 11.949000 36.401001 # 1HT TIP3
33 11 1 0.423800 20.400000 12.833000 36.591000 # 1HT TIP3
34 12 2 -0.847600 15.295000 17.051001 31.142000 # 2OT TIP3
35 12 1 0.423800 14.935000 16.437000 30.499001 # 1HT TIP3
36 12 1 0.423800 14.607000 17.322001 31.752001 # 1HT TIP3
37 13 2 -0.847600 18.107000 0.788000 15.198000 # 2OT TIP3
38 13 1 0.423800 17.784000 0.034000 14.700000 # 1HT TIP3
39 13 1 0.423800 19.049000 0.699000 15.347000 # 1HT TIP3
40 14 2 -0.847600 19.598000 12.582000 19.791000 # 2OT TIP3
41 14 1 0.423800 19.339001 13.064000 19.003000 # 1HT TIP3
42 14 1 0.423800 20.497000 12.810000 20.030001 # 1HT TIP3
43 15 2 -0.847600 3.886000 19.082001 16.490000 # 2OT TIP3
44 15 1 0.423800 3.299000 18.323000 16.500000 # 1HT TIP3
45 15 1 0.423800 4.789000 18.795000 16.632000 # 1HT TIP3
46 16 2 -0.847600 -4.149000 2.408000 21.952999 # 2OT TIP3
47 16 1 0.423800 -3.888000 3.231000 21.534000 # 1HT TIP3
48 16 1 0.423800 -5.103000 2.331000 21.952000 # 1HT TIP3
49 17 2 -0.847600 2.913000 14.946000 35.971001 # 2OT TIP3
50 17 1 0.423800 3.268000 15.368000 36.756001 # 1HT TIP3
51 17 1 0.423800 3.604000 14.849000 35.314999 # 1HT TIP3
52 18 2 -0.847600 -6.686000 2.563000 4.851000 # 2OT TIP3
53 18 1 0.423800 -6.603000 1.661000 5.168000 # 1HT TIP3
54 18 1 0.423800 -5.839000 3.007000 4.909000 # 1HT TIP3
55 19 2 -0.847600 0.937000 -0.634000 18.080000 # 2OT TIP3
56 19 1 0.423800 -0.020000 -0.705000 18.042000 # 1HT TIP3
57 19 1 0.423800 1.217000 -0.524000 18.989000 # 1HT TIP3
58 20 2 -0.847600 -4.534000 6.343000 31.632000 # 2OT TIP3
59 20 1 0.423800 -4.100000 5.488000 31.650999 # 1HT TIP3
60 20 1 0.423800 -5.344000 6.285000 31.122999 # 1HT TIP3
61 21 2 -0.847600 -18.472000 -17.927000 3.896000 # 2OT TIP3
62 21 1 0.423800 -17.995001 -18.702000 3.593000 # 1HT TIP3
63 21 1 0.423800 -17.909000 -17.402000 4.466000 # 1HT TIP3
64 22 2 -0.847600 -9.490000 -8.149000 37.919998 # 2OT TIP3
65 22 1 0.423800 -10.382000 -8.077000 37.575001 # 1HT TIP3
66 22 1 0.423800 -8.894000 -8.423000 37.222000 # 1HT TIP3
67 23 2 -0.847600 9.848000 -17.170000 25.895000 # 2OT TIP3
68 23 1 0.423800 9.946000 -17.989000 26.386000 # 1HT TIP3
69 23 1 0.423800 8.924000 -17.028000 25.683001 # 1HT TIP3
70 24 2 -0.847600 -16.058001 9.046000 9.596000 # 2OT TIP3
71 24 1 0.423800 -16.492001 9.901000 9.637000 # 1HT TIP3
72 24 1 0.423800 -15.831000 8.755000 10.480000 # 1HT TIP3
73 25 2 -0.847600 -1.265000 16.476000 10.825000 # 2OT TIP3
74 25 1 0.423800 -0.381000 16.254000 11.126000 # 1HT TIP3
75 25 1 0.423800 -1.529000 17.320999 11.192000 # 1HT TIP3
76 26 2 -0.847600 13.774000 11.065000 6.090000 # 2OT TIP3
77 26 1 0.423800 14.452000 11.393000 6.686000 # 1HT TIP3
78 26 1 0.423800 13.449000 11.782000 5.544000 # 1HT TIP3
79 27 2 -0.847600 5.163000 -16.839001 10.483000 # 2OT TIP3
80 27 1 0.423800 4.877000 -15.923000 10.472000 # 1HT TIP3
81 27 1 0.423800 4.435000 -17.403000 10.746000 # 1HT TIP3
82 28 2 -0.847600 11.664000 -5.828000 22.254999 # 2OT TIP3
83 28 1 0.423800 11.925000 -6.497000 21.618999 # 1HT TIP3
84 28 1 0.423800 11.699000 -6.191000 23.141001 # 1HT TIP3
85 29 2 -0.847600 3.786000 11.429000 14.548000 # 2OT TIP3
86 29 1 0.423800 3.172000 12.021000 14.987000 # 1HT TIP3
87 29 1 0.423800 4.680000 11.614000 14.838000 # 1HT TIP3
88 30 2 -0.847600 -19.684000 2.986000 33.632000 # 2OT TIP3
89 30 1 0.423800 -19.468000 2.427000 32.882999 # 1HT TIP3
90 30 1 0.423800 -20.165001 2.478000 34.286999 # 1HT TIP3
91 31 2 -0.847600 -6.504000 10.471000 14.789000 # 2OT TIP3
92 31 1 0.423800 -5.759000 10.235000 14.232000 # 1HT TIP3
93 31 1 0.423800 -6.197000 10.971000 15.546000 # 1HT TIP3
94 32 2 -0.847600 -2.110000 20.065001 24.386000 # 2OT TIP3
95 32 1 0.423800 -1.622000 20.497999 23.683001 # 1HT TIP3
96 32 1 0.423800 -3.046000 20.068001 24.181000 # 1HT TIP3
97 33 2 -0.847600 -0.812000 -4.080000 36.273998 # 2OT TIP3
98 33 1 0.423800 -1.390000 -3.437000 35.858002 # 1HT TIP3
99 33 1 0.423800 -1.334000 -4.778000 36.669998 # 1HT TIP3
100 34 2 -0.847600 19.023001 -12.968000 32.730999 # 2OT TIP3
101 34 1 0.423800 18.399000 -13.589000 32.349998 # 1HT TIP3
102 34 1 0.423800 19.879999 -13.386000 32.826000 # 1HT TIP3
103 35 2 -0.847600 -5.463000 -6.036000 6.966000 # 2OT TIP3
104 35 1 0.423800 -5.685000 -6.700000 6.310000 # 1HT TIP3
105 35 1 0.423800 -4.666000 -6.293000 7.430000 # 1HT TIP3
106 36 2 -0.847600 0.009000 8.079000 37.633999 # 2OT TIP3
107 36 1 0.423800 0.299000 8.993000 37.592999 # 1HT TIP3
108 36 1 0.423800 0.770000 7.499000 37.667999 # 1HT TIP3
109 37 2 -0.847600 -9.428000 -18.563999 19.466000 # 2OT TIP3
110 37 1 0.423800 -9.835000 -18.035999 18.775999 # 1HT TIP3
111 37 1 0.423800 -9.831000 -19.433001 19.489000 # 1HT TIP3
112 38 2 -0.847600 -8.599000 -7.075000 26.990000 # 2OT TIP3
113 38 1 0.423800 -7.765000 -6.675000 26.733000 # 1HT TIP3
114 38 1 0.423800 -9.165000 -6.415000 27.389999 # 1HT TIP3
115 39 2 -0.847600 9.337000 2.581000 25.583000 # 2OT TIP3
116 39 1 0.423800 8.805000 3.053000 26.226999 # 1HT TIP3
117 39 1 0.423800 9.304000 3.035000 24.740000 # 1HT TIP3
118 40 2 -0.847600 -14.988000 -19.951000 7.162000 # 2OT TIP3
119 40 1 0.423800 -14.626000 -20.341000 7.961000 # 1HT TIP3
120 40 1 0.423800 -14.774000 -20.500000 6.407000 # 1HT TIP3
121 41 2 -0.847600 -10.753000 -6.902000 22.760000 # 2OT TIP3
122 41 1 0.423800 -11.526000 -7.459000 22.643999 # 1HT TIP3
123 41 1 0.423800 -9.985000 -7.446000 22.937000 # 1HT TIP3
124 42 2 -0.847600 -12.597000 -15.885000 24.466000 # 2OT TIP3
125 42 1 0.423800 -13.025000 -15.057000 24.694000 # 1HT TIP3
126 42 1 0.423800 -11.723000 -15.916000 24.856001 # 1HT TIP3
127 43 2 -0.847600 0.479000 -14.254000 30.636999 # 2OT TIP3
128 43 1 0.423800 0.013000 -13.606000 31.169001 # 1HT TIP3
129 43 1 0.423800 0.331000 -14.077000 29.707001 # 1HT TIP3
130 44 2 -0.847600 4.892000 7.325000 7.287000 # 2OT TIP3
131 44 1 0.423800 5.704000 7.014000 6.882000 # 1HT TIP3
132 44 1 0.423800 4.792000 8.265000 7.132000 # 1HT TIP3
133 45 2 -0.847600 13.908000 14.781000 29.476999 # 2OT TIP3
134 45 1 0.423800 14.271000 14.352000 30.254999 # 1HT TIP3
135 45 1 0.423800 13.171000 15.338000 29.728001 # 1HT TIP3
136 46 2 -0.847600 13.553000 -17.865999 37.759998 # 2OT TIP3
137 46 1 0.423800 13.229000 -18.768999 37.803001 # 1HT TIP3
138 46 1 0.423800 14.279000 -17.753000 38.374001 # 1HT TIP3
139 47 2 -0.847600 -13.950000 -7.680000 26.208000 # 2OT TIP3
140 47 1 0.423800 -14.363000 -7.377000 25.396999 # 1HT TIP3
141 47 1 0.423800 -14.621000 -7.858000 26.868000 # 1HT TIP3
142 48 2 -0.847600 -4.682000 13.687000 6.769000 # 2OT TIP3
143 48 1 0.423800 -4.989000 12.784000 6.670000 # 1HT TIP3
144 48 1 0.423800 -5.411000 14.251000 7.029000 # 1HT TIP3
145 49 2 -0.847600 -15.958000 12.484000 27.087000 # 2OT TIP3
146 49 1 0.423800 -15.190000 13.005000 27.330999 # 1HT TIP3
147 49 1 0.423800 -15.687000 11.592000 26.865999 # 1HT TIP3
148 50 2 -0.847600 -12.846000 9.157000 37.846001 # 2OT TIP3
149 50 1 0.423800 -12.905000 8.243000 38.133999 # 1HT TIP3
150 50 1 0.423800 -12.057000 9.279000 37.316002 # 1HT TIP3
151 51 2 -0.847600 0.135000 -13.423000 11.659000 # 2OT TIP3
152 51 1 0.423800 -0.310000 -13.001000 10.921000 # 1HT TIP3
153 51 1 0.423800 0.240000 -12.797000 12.375000 # 1HT TIP3
154 52 2 -0.847600 11.213000 1.710000 9.078000 # 2OT TIP3
155 52 1 0.423800 10.639000 2.169000 9.695000 # 1HT TIP3
156 52 1 0.423800 11.555000 0.912000 9.485000 # 1HT TIP3
157 53 2 -0.847600 0.324000 -18.718000 20.990999 # 2OT TIP3
158 53 1 0.423800 0.493000 -18.225000 21.796000 # 1HT TIP3
159 53 1 0.423800 0.197000 -19.643999 21.198000 # 1HT TIP3
160 54 2 -0.847600 -11.893000 0.388000 21.400999 # 2OT TIP3
161 54 1 0.423800 -11.955000 1.318000 21.629000 # 1HT TIP3
162 54 1 0.423800 -11.007000 0.186000 21.100000 # 1HT TIP3
163 55 2 -0.847600 5.948000 3.501000 32.943001 # 2OT TIP3
164 55 1 0.423800 6.525000 4.222000 33.203999 # 1HT TIP3
165 55 1 0.423800 6.468000 2.713000 32.782001 # 1HT TIP3
166 56 2 -0.847600 1.301000 -1.362000 13.437000 # 2OT TIP3
167 56 1 0.423800 1.443000 -0.442000 13.205000 # 1HT TIP3
168 56 1 0.423800 2.058000 -1.695000 13.920000 # 1HT TIP3
169 57 2 -0.847600 1.427000 4.861000 17.643000 # 2OT TIP3
170 57 1 0.423800 1.943000 5.443000 17.080999 # 1HT TIP3
171 57 1 0.423800 0.899000 5.380000 18.250999 # 1HT TIP3
172 58 2 -0.847600 -8.890000 -16.035999 24.787001 # 2OT TIP3
173 58 1 0.423800 -9.588000 -15.937000 25.438000 # 1HT TIP3
174 58 1 0.423800 -9.225000 -16.502001 24.020000 # 1HT TIP3
175 59 2 -0.847600 16.714001 -9.778000 28.132000 # 2OT TIP3
176 59 1 0.423800 16.670000 -8.872000 27.818001 # 1HT TIP3
177 59 1 0.423800 15.835000 -10.088000 28.353001 # 1HT TIP3
178 60 2 -0.847600 2.498000 -20.354000 8.740000 # 2OT TIP3
179 60 1 0.423800 2.931000 -19.950001 9.495000 # 1HT TIP3
180 60 1 0.423800 1.570000 -20.490000 8.933000 # 1HT TIP3
181 61 2 -0.847600 -10.594000 6.761000 20.635000 # 2OT TIP3
182 61 1 0.423800 -10.117000 7.582000 20.495001 # 1HT TIP3
183 61 1 0.423800 -11.361000 6.731000 20.063000 # 1HT TIP3
184 62 2 -0.847600 4.411000 1.325000 11.207000 # 2OT TIP3
185 62 1 0.423800 5.207000 0.868000 10.928000 # 1HT TIP3
186 62 1 0.423800 4.588000 2.262000 11.291000 # 1HT TIP3
187 63 2 -0.847600 5.906000 -6.651000 5.641000 # 2OT TIP3
188 63 1 0.423800 5.322000 -7.156000 6.212000 # 1HT TIP3
189 63 1 0.423800 5.996000 -7.093000 4.796000 # 1HT TIP3
190 64 2 -0.847600 20.233999 -11.971000 28.766001 # 2OT TIP3
191 64 1 0.423800 20.500000 -12.774000 28.313000 # 1HT TIP3
192 64 1 0.423800 19.674999 -12.189000 29.511999 # 1HT TIP3
193 65 2 -0.847600 7.190000 1.270000 26.556000 # 2OT TIP3
194 65 1 0.423800 8.082000 1.070000 26.848000 # 1HT TIP3
195 65 1 0.423800 6.609000 0.538000 26.763000 # 1HT TIP3
196 66 2 -0.847600 -14.736000 -7.569000 6.126000 # 2OT TIP3
197 66 1 0.423800 -14.123000 -8.245000 5.831000 # 1HT TIP3
198 66 1 0.423800 -14.251000 -6.831000 6.497000 # 1HT TIP3
199 67 2 -0.847600 -17.806000 -0.583000 12.067000 # 2OT TIP3
200 67 1 0.423800 -16.947001 -1.008000 12.017000 # 1HT TIP3
201 67 1 0.423800 -17.771999 0.269000 11.631000 # 1HT TIP3
202 68 2 -0.847600 18.653000 18.799000 24.240999 # 2OT TIP3
203 68 1 0.423800 18.172001 18.837000 25.070000 # 1HT TIP3
204 68 1 0.423800 19.518000 18.413000 24.385000 # 1HT TIP3
205 69 2 -0.847600 -4.731000 1.480000 12.982000 # 2OT TIP3
206 69 1 0.423800 -5.054000 1.593000 13.878000 # 1HT TIP3
207 69 1 0.423800 -5.358000 1.853000 12.362000 # 1HT TIP3
208 70 2 -0.847600 -7.776000 -7.370000 21.237000 # 2OT TIP3
209 70 1 0.423800 -8.726000 -7.461000 21.134001 # 1HT TIP3
210 70 1 0.423800 -7.355000 -8.224000 21.128000 # 1HT TIP3
211 71 2 -0.847600 -20.421000 -18.774000 16.915001 # 2OT TIP3
212 71 1 0.423800 -20.500000 -17.865000 16.618999 # 1HT TIP3
213 71 1 0.423800 -19.506001 -18.971001 17.118999 # 1HT TIP3
214 72 2 -0.847600 16.402000 14.106000 8.209000 # 2OT TIP3
215 72 1 0.423800 15.770000 14.597000 8.739000 # 1HT TIP3
216 72 1 0.423800 17.275999 14.482000 8.317000 # 1HT TIP3
217 73 2 -0.847600 -4.982000 -11.659000 40.910999 # 2OT TIP3
218 73 1 0.423800 -4.234000 -11.075000 41.057999 # 1HT TIP3
219 73 1 0.423800 -4.739000 -12.558000 41.133999 # 1HT TIP3
220 74 2 -0.847600 9.460000 -0.663000 23.808001 # 2OT TIP3
221 74 1 0.423800 10.298000 -1.120000 23.708000 # 1HT TIP3
222 74 1 0.423800 9.617000 0.255000 24.032000 # 1HT TIP3
223 75 2 -0.847600 -19.974001 -12.197000 38.647999 # 2OT TIP3
224 75 1 0.423800 -20.499001 -12.915000 38.286999 # 1HT TIP3
225 75 1 0.423800 -20.496000 -11.395000 38.673000 # 1HT TIP3
226 76 2 -0.847600 12.725000 5.509000 12.918000 # 2OT TIP3
227 76 1 0.423800 13.532000 5.273000 12.455000 # 1HT TIP3
228 76 1 0.423800 11.988000 5.015000 12.555000 # 1HT TIP3
229 77 2 -0.847600 11.090000 -14.951000 17.313000 # 2OT TIP3
230 77 1 0.423800 11.379000 -15.323000 16.476000 # 1HT TIP3
231 77 1 0.423800 11.850000 -14.676000 17.826000 # 1HT TIP3
232 78 2 -0.847600 1.783000 17.778999 5.305000 # 2OT TIP3
233 78 1 0.423800 1.751000 18.650999 4.906000 # 1HT TIP3
234 78 1 0.423800 0.913000 17.534000 5.622000 # 1HT TIP3
235 79 2 -0.847600 -19.466000 7.857000 10.274000 # 2OT TIP3
236 79 1 0.423800 -18.622999 7.793000 10.727000 # 1HT TIP3
237 79 1 0.423800 -20.063999 7.185000 10.604000 # 1HT TIP3
238 80 2 -0.847600 6.038000 11.554000 25.993999 # 2OT TIP3
239 80 1 0.423800 6.588000 11.396000 26.763000 # 1HT TIP3
240 80 1 0.423800 5.117000 11.586000 26.254999 # 1HT TIP3
241 81 2 -0.847600 -5.473000 4.006000 10.125000 # 2OT TIP3
242 81 1 0.423800 -4.957000 4.771000 10.390000 # 1HT TIP3
243 81 1 0.423800 -4.886000 3.288000 9.884000 # 1HT TIP3
244 82 2 -0.847600 14.138000 -5.649000 7.225000 # 2OT TIP3
245 82 1 0.423800 13.950000 -5.100000 6.460000 # 1HT TIP3
246 82 1 0.423800 13.324000 -6.032000 7.556000 # 1HT TIP3
247 83 2 -0.847600 16.917999 -7.416000 11.228000 # 2OT TIP3
248 83 1 0.423800 17.497999 -6.862000 11.755000 # 1HT TIP3
249 83 1 0.423800 17.412001 -8.155000 10.872000 # 1HT TIP3
250 84 2 -0.847600 3.795000 5.139000 3.493000 # 2OT TIP3
251 84 1 0.423800 3.723000 5.204000 4.448000 # 1HT TIP3
252 84 1 0.423800 3.208000 4.455000 3.169000 # 1HT TIP3
253 85 2 -0.847600 2.449000 -1.720000 16.908001 # 2OT TIP3
254 85 1 0.423800 2.154000 -2.387000 17.532000 # 1HT TIP3
255 85 1 0.423800 3.399000 -1.617000 16.969999 # 1HT TIP3
256 86 2 -0.847600 14.034000 -13.208000 15.933000 # 2OT TIP3
257 86 1 0.423800 14.646000 -13.941000 16.028000 # 1HT TIP3
258 86 1 0.423800 14.216000 -12.737000 15.119000 # 1HT TIP3
259 87 2 -0.847600 11.393000 4.554000 39.541000 # 2OT TIP3
260 87 1 0.423800 11.787000 4.553000 38.666000 # 1HT TIP3
261 87 1 0.423800 10.998000 5.409000 39.716999 # 1HT TIP3
262 88 2 -0.847600 -1.673000 20.493999 15.309000 # 2OT TIP3
263 88 1 0.423800 -1.347000 19.620001 15.533000 # 1HT TIP3
264 88 1 0.423800 -2.616000 20.455999 15.143000 # 1HT TIP3
265 89 2 -0.847600 12.576000 14.285000 37.703999 # 2OT TIP3
266 89 1 0.423800 11.740000 14.054000 38.112999 # 1HT TIP3
267 89 1 0.423800 13.284000 13.778000 38.104000 # 1HT TIP3
268 90 2 -0.847600 0.511000 16.962000 32.431999 # 2OT TIP3
269 90 1 0.423800 1.071000 16.211000 32.223000 # 1HT TIP3
270 90 1 0.423800 -0.026000 17.187000 31.672001 # 1HT TIP3
271 91 2 -0.847600 13.874000 -1.089000 38.066002 # 2OT TIP3
272 91 1 0.423800 13.166000 -0.756000 38.622002 # 1HT TIP3
273 91 1 0.423800 13.669000 -0.922000 37.146000 # 1HT TIP3
274 92 2 -0.847600 17.292000 0.630000 26.657000 # 2OT TIP3
275 92 1 0.423800 17.801001 0.852000 27.440001 # 1HT TIP3
276 92 1 0.423800 16.480000 1.138000 26.643999 # 1HT TIP3
277 93 2 -0.847600 -14.753000 -10.826000 11.140000 # 2OT TIP3
278 93 1 0.423800 -14.642000 -11.228000 12.004000 # 1HT TIP3
279 93 1 0.423800 -14.684000 -9.874000 11.214000 # 1HT TIP3
280 94 2 -0.847600 6.169000 12.569000 6.371000 # 2OT TIP3
281 94 1 0.423800 6.985000 12.709000 5.885000 # 1HT TIP3
282 94 1 0.423800 6.092000 13.221000 7.069000 # 1HT TIP3
283 95 2 -0.847600 -18.797001 -3.091000 10.505000 # 2OT TIP3
284 95 1 0.423800 -19.650999 -3.267000 10.907000 # 1HT TIP3
285 95 1 0.423800 -18.115000 -3.579000 10.968000 # 1HT TIP3
286 96 2 -0.847600 -19.204000 17.455999 15.008000 # 2OT TIP3
287 96 1 0.423800 -20.080999 17.500999 15.396000 # 1HT TIP3
288 96 1 0.423800 -19.274000 17.429001 14.053000 # 1HT TIP3
289 97 2 -0.847600 14.294000 6.641000 9.361000 # 2OT TIP3
290 97 1 0.423800 13.758000 7.366000 9.032000 # 1HT TIP3
291 97 1 0.423800 13.814000 6.165000 10.039000 # 1HT TIP3
292 98 2 -0.847600 -18.518000 -5.649000 8.135000 # 2OT TIP3
293 98 1 0.423800 -18.295000 -4.716000 8.164000 # 1HT TIP3
294 98 1 0.423800 -19.457001 -5.762000 8.287000 # 1HT TIP3
295 99 2 -0.847600 4.914000 -8.252000 27.483999 # 2OT TIP3
296 99 1 0.423800 3.983000 -8.055000 27.363001 # 1HT TIP3
297 99 1 0.423800 5.188000 -7.995000 28.365999 # 1HT TIP3
298 100 2 -0.847600 -9.411000 19.702999 29.472000 # 2OT TIP3
299 100 1 0.423800 -9.694000 18.787001 29.514999 # 1HT TIP3
300 100 1 0.423800 -10.175000 20.280001 29.495001 # 1HT TIP3
301 101 2 -0.847600 10.842000 -19.716999 39.936001 # 2OT TIP3
302 101 1 0.423800 11.238000 -18.947001 40.349998 # 1HT TIP3
303 101 1 0.423800 11.350000 -20.500000 40.153999 # 1HT TIP3
304 102 2 -0.847600 1.039000 18.555000 34.636002 # 2OT TIP3
305 102 1 0.423800 0.642000 19.194000 34.040001 # 1HT TIP3
306 102 1 0.423800 1.829000 18.927000 35.029999 # 1HT TIP3
307 103 2 -0.847600 -0.840000 5.247000 36.638000 # 2OT TIP3
308 103 1 0.423800 -0.848000 4.373000 36.243999 # 1HT TIP3
309 103 1 0.423800 -0.358000 5.225000 37.466000 # 1HT TIP3
310 104 2 -0.847600 -19.507999 -5.435000 22.107000 # 2OT TIP3
311 104 1 0.423800 -18.584999 -5.697000 22.091999 # 1HT TIP3
312 104 1 0.423800 -19.611000 -4.588000 21.670000 # 1HT TIP3
313 105 2 -0.847600 -6.678000 -15.683000 14.865000 # 2OT TIP3
314 105 1 0.423800 -6.472000 -14.784000 14.601000 # 1HT TIP3
315 105 1 0.423800 -7.247000 -15.673000 15.636000 # 1HT TIP3
316 106 2 -0.847600 -8.873000 1.519000 41.259998 # 2OT TIP3
317 106 1 0.423800 -8.081000 1.612000 40.724998 # 1HT TIP3
318 106 1 0.423800 -9.212000 2.385000 41.487999 # 1HT TIP3
319 107 2 -0.847600 -14.650000 17.275999 24.464001 # 2OT TIP3
320 107 1 0.423800 -14.485000 17.667999 23.604000 # 1HT TIP3
321 107 1 0.423800 -13.851000 16.860001 24.790001 # 1HT TIP3
322 108 2 -0.847600 15.267000 -17.500000 35.846001 # 2OT TIP3
323 108 1 0.423800 15.342000 -18.330999 36.320999 # 1HT TIP3
324 108 1 0.423800 16.131001 -17.094000 35.764999 # 1HT TIP3
325 109 2 -0.847600 -7.214000 -9.795000 22.660999 # 2OT TIP3
326 109 1 0.423800 -6.495000 -10.377000 22.916000 # 1HT TIP3
327 109 1 0.423800 -8.053000 -10.198000 22.889999 # 1HT TIP3
328 110 2 -0.847600 -7.332000 14.275000 21.245001 # 2OT TIP3
329 110 1 0.423800 -6.526000 13.794000 21.443001 # 1HT TIP3
330 110 1 0.423800 -8.035000 13.659000 21.037001 # 1HT TIP3
331 111 2 -0.847600 4.514000 -2.875000 36.054001 # 2OT TIP3
332 111 1 0.423800 4.169000 -3.768000 36.115002 # 1HT TIP3
333 111 1 0.423800 4.126000 -2.330000 36.740002 # 1HT TIP3
334 112 2 -0.847600 -8.814000 17.379000 22.537001 # 2OT TIP3
335 112 1 0.423800 -8.434000 16.646999 23.028000 # 1HT TIP3
336 112 1 0.423800 -8.240000 17.611000 21.806000 # 1HT TIP3
337 113 2 -0.847600 -12.747000 -15.764000 29.267000 # 2OT TIP3
338 113 1 0.423800 -13.627000 -15.436000 29.468000 # 1HT TIP3
339 113 1 0.423800 -12.145000 -15.028000 29.153000 # 1HT TIP3
340 114 2 -0.847600 18.236000 16.222000 33.786999 # 2OT TIP3
341 114 1 0.423800 17.746000 15.415000 33.612999 # 1HT TIP3
342 114 1 0.423800 19.148001 16.009001 33.988998 # 1HT TIP3
343 115 2 -0.847600 -10.071000 -12.600000 18.527000 # 2OT TIP3
344 115 1 0.423800 -9.468000 -12.391000 17.809999 # 1HT TIP3
345 115 1 0.423800 -10.837000 -12.027000 18.485001 # 1HT TIP3
346 116 2 -0.847600 20.111000 15.296000 19.482000 # 2OT TIP3
347 116 1 0.423800 19.184000 15.314000 19.233000 # 1HT TIP3
348 116 1 0.423800 20.200001 14.962000 20.375000 # 1HT TIP3
349 117 2 -0.847600 18.230000 3.283000 11.283000 # 2OT TIP3
350 117 1 0.423800 18.347000 2.413000 10.896000 # 1HT TIP3
351 117 1 0.423800 19.061001 3.759000 11.270000 # 1HT TIP3
352 118 2 -0.847600 2.846000 -6.085000 16.919001 # 2OT TIP3
353 118 1 0.423800 2.726000 -5.712000 17.795000 # 1HT TIP3
354 118 1 0.423800 3.731000 -5.893000 16.604000 # 1HT TIP3
355 119 2 -0.847600 14.425000 12.024000 18.495001 # 2OT TIP3
356 119 1 0.423800 13.741000 12.363000 19.077000 # 1HT TIP3
357 119 1 0.423800 14.405000 11.067000 18.495001 # 1HT TIP3
358 120 2 -0.847600 -11.264000 2.891000 29.250000 # 2OT TIP3
359 120 1 0.423800 -10.788000 2.512000 29.992001 # 1HT TIP3
360 120 1 0.423800 -11.491000 3.801000 29.441000 # 1HT TIP3
361 121 2 -0.847600 -4.015000 -5.819000 37.206001 # 2OT TIP3
362 121 1 0.423800 -3.605000 -6.595000 36.818001 # 1HT TIP3
363 121 1 0.423800 -3.339000 -5.197000 37.476002 # 1HT TIP3
364 122 2 -0.847600 -0.913000 6.358000 27.224001 # 2OT TIP3
365 122 1 0.423800 -0.937000 6.028000 26.322001 # 1HT TIP3
366 122 1 0.423800 -1.576000 5.909000 27.750000 # 1HT TIP3
367 123 2 -0.847600 -1.810000 -8.022000 12.922000 # 2OT TIP3
368 123 1 0.423800 -1.509000 -7.203000 13.322000 # 1HT TIP3
369 123 1 0.423800 -2.430000 -8.460000 13.507000 # 1HT TIP3
370 124 2 -0.847600 -19.943001 -13.530000 30.299999 # 2OT TIP3
371 124 1 0.423800 -20.490000 -14.260000 30.598000 # 1HT TIP3
372 124 1 0.423800 -20.497999 -12.803000 30.016001 # 1HT TIP3
373 125 2 -0.847600 -2.905000 9.089000 7.892000 # 2OT TIP3
374 125 1 0.423800 -3.717000 9.406000 8.293000 # 1HT TIP3
375 125 1 0.423800 -2.352000 8.681000 8.559000 # 1HT TIP3
376 126 2 -0.847600 -14.952000 18.077000 38.272999 # 2OT TIP3
377 126 1 0.423800 -15.762000 18.379000 38.688999 # 1HT TIP3
378 126 1 0.423800 -14.377000 18.823999 38.102001 # 1HT TIP3
379 127 2 -0.847600 11.865000 12.687000 34.438000 # 2OT TIP3
380 127 1 0.423800 12.006000 12.996000 35.335999 # 1HT TIP3
381 127 1 0.423800 11.381000 11.860000 34.452000 # 1HT TIP3
382 128 2 -0.847600 0.643000 14.433000 28.313000 # 2OT TIP3
383 128 1 0.423800 -0.265000 14.620000 28.065001 # 1HT TIP3
384 128 1 0.423800 0.737000 13.504000 28.527000 # 1HT TIP3
385 129 2 -0.847600 -17.164000 10.216000 12.271000 # 2OT TIP3
386 129 1 0.423800 -17.514000 9.650000 11.580000 # 1HT TIP3
387 129 1 0.423800 -16.261000 10.459000 12.064000 # 1HT TIP3
388 130 2 -0.847600 10.636000 -6.369000 36.091999 # 2OT TIP3
389 130 1 0.423800 10.232000 -6.507000 36.951000 # 1HT TIP3
390 130 1 0.423800 11.578000 -6.534000 36.146000 # 1HT TIP3
391 131 2 -0.847600 -5.406000 -20.024000 14.630000 # 2OT TIP3
392 131 1 0.423800 -4.844000 -19.549999 15.247000 # 1HT TIP3
393 131 1 0.423800 -4.864000 -20.490999 13.993000 # 1HT TIP3
394 132 2 -0.847600 -17.325001 -2.192000 8.702000 # 2OT TIP3
395 132 1 0.423800 -17.889000 -2.269000 7.929000 # 1HT TIP3
396 132 1 0.423800 -17.141001 -3.062000 9.057000 # 1HT TIP3
397 133 2 -0.847600 -15.387000 -13.438000 12.037000 # 2OT TIP3
398 133 1 0.423800 -15.690000 -14.338000 12.175000 # 1HT TIP3
399 133 1 0.423800 -16.000999 -12.973000 11.468000 # 1HT TIP3
400 134 2 -0.847600 15.070000 -15.661000 30.514999 # 2OT TIP3
401 134 1 0.423800 14.418000 -15.488000 29.833000 # 1HT TIP3
402 134 1 0.423800 14.934000 -16.537001 30.879000 # 1HT TIP3
403 135 2 -0.847600 3.170000 19.618999 18.597000 # 2OT TIP3
404 135 1 0.423800 2.333000 19.771000 19.042000 # 1HT TIP3
405 135 1 0.423800 3.467000 20.427999 18.179001 # 1HT TIP3
406 136 2 -0.847600 8.436000 -8.599000 18.944000 # 2OT TIP3
407 136 1 0.423800 8.408000 -9.555000 18.861000 # 1HT TIP3
408 136 1 0.423800 7.577000 -8.230000 18.733999 # 1HT TIP3
409 137 2 -0.847600 8.872000 -6.038000 6.529000 # 2OT TIP3
410 137 1 0.423800 8.576000 -5.283000 7.043000 # 1HT TIP3
411 137 1 0.423800 9.812000 -5.966000 6.360000 # 1HT TIP3
412 138 2 -0.847600 2.889000 -5.068000 10.871000 # 2OT TIP3
413 138 1 0.423800 2.004000 -5.234000 11.204000 # 1HT TIP3
414 138 1 0.423800 3.536000 -5.443000 11.470000 # 1HT TIP3
415 139 2 -0.847600 16.346001 17.291000 37.660999 # 2OT TIP3
416 139 1 0.423800 16.059999 16.395000 37.853001 # 1HT TIP3
417 139 1 0.423800 17.014000 17.559999 38.292000 # 1HT TIP3
418 140 2 -0.847600 13.589000 -15.187000 27.694000 # 2OT TIP3
419 140 1 0.423800 13.258000 -16.021000 28.034000 # 1HT TIP3
420 140 1 0.423800 13.903000 -15.305000 26.797001 # 1HT TIP3
421 141 2 -0.847600 -10.800000 -20.493999 13.499000 # 2OT TIP3
422 141 1 0.423800 -11.667000 -20.184000 13.770000 # 1HT TIP3
423 141 1 0.423800 -10.126000 -19.889000 13.814000 # 1HT TIP3
424 142 2 -0.847600 -9.343000 8.517000 40.915001 # 2OT TIP3
425 142 1 0.423800 -8.892000 7.807000 40.452999 # 1HT TIP3
426 142 1 0.423800 -10.120000 8.782000 40.422001 # 1HT TIP3
427 143 2 -0.847600 9.242000 -14.362000 27.723000 # 2OT TIP3
428 143 1 0.423800 9.227000 -14.870000 28.537001 # 1HT TIP3
429 143 1 0.423800 9.133000 -14.949000 26.973000 # 1HT TIP3
430 144 2 -0.847600 16.559000 -8.405000 18.108000 # 2OT TIP3
431 144 1 0.423800 16.157000 -7.558000 17.903999 # 1HT TIP3
432 144 1 0.423800 17.329000 -8.540000 17.555000 # 1HT TIP3
433 145 2 -0.847600 -10.550000 3.068000 5.535000 # 2OT TIP3
434 145 1 0.423800 -9.598000 3.185000 5.494000 # 1HT TIP3
435 145 1 0.423800 -10.970000 3.901000 5.750000 # 1HT TIP3
436 146 2 -0.847600 -14.041000 17.948999 26.743999 # 2OT TIP3
437 146 1 0.423800 -14.974000 17.796000 26.577999 # 1HT TIP3
438 146 1 0.423800 -13.746000 17.396999 27.469000 # 1HT TIP3
439 147 2 -0.847600 15.340000 19.544001 24.788000 # 2OT TIP3
440 147 1 0.423800 15.329000 20.487000 24.966000 # 1HT TIP3
441 147 1 0.423800 16.159000 19.306000 24.354000 # 1HT TIP3
442 148 2 -0.847600 -11.819000 14.951000 26.976000 # 2OT TIP3
443 148 1 0.423800 -12.290000 14.256000 26.510000 # 1HT TIP3
444 148 1 0.423800 -12.297000 15.777000 26.895000 # 1HT TIP3
445 149 2 -0.847600 -10.053000 -10.349000 19.671000 # 2OT TIP3
446 149 1 0.423800 -10.531000 -9.906000 20.375999 # 1HT TIP3
447 149 1 0.423800 -10.127000 -9.843000 18.861000 # 1HT TIP3
448 150 2 -0.847600 16.677000 10.015000 36.373001 # 2OT TIP3
449 150 1 0.423800 16.613001 9.386000 35.651001 # 1HT TIP3
450 150 1 0.423800 17.597000 10.207000 36.556000 # 1HT TIP3
451 151 2 -0.847600 -17.433001 14.233000 35.280998 # 2OT TIP3
452 151 1 0.423800 -17.754000 13.488000 34.769001 # 1HT TIP3
453 151 1 0.423800 -16.558001 14.040000 35.620998 # 1HT TIP3
454 152 2 -0.847600 -8.797000 -17.879000 30.211000 # 2OT TIP3
455 152 1 0.423800 -7.935000 -17.886000 30.631001 # 1HT TIP3
456 152 1 0.423800 -9.084000 -18.777000 30.042000 # 1HT TIP3
457 153 2 -0.847600 -7.423000 12.113000 6.723000 # 2OT TIP3
458 153 1 0.423800 -7.117000 12.784000 6.109000 # 1HT TIP3
459 153 1 0.423800 -8.002000 11.500000 6.270000 # 1HT TIP3
460 154 2 -0.847600 -0.085000 -2.802000 34.036999 # 2OT TIP3
461 154 1 0.423800 -0.992000 -2.753000 33.727001 # 1HT TIP3
462 154 1 0.423800 0.455000 -3.257000 33.389999 # 1HT TIP3
463 155 2 -0.847600 0.574000 -4.942000 13.277000 # 2OT TIP3
464 155 1 0.423800 0.353000 -5.597000 12.611000 # 1HT TIP3
465 155 1 0.423800 0.672000 -5.367000 14.130000 # 1HT TIP3
466 156 2 -0.847600 17.985001 -17.334000 37.442001 # 2OT TIP3
467 156 1 0.423800 18.886000 -17.625000 37.280998 # 1HT TIP3
468 156 1 0.423800 17.851999 -16.466000 37.060001 # 1HT TIP3
469 157 2 -0.847600 16.827000 6.135000 32.375000 # 2OT TIP3
470 157 1 0.423800 16.572001 6.728000 33.084000 # 1HT TIP3
471 157 1 0.423800 17.402000 6.592000 31.760000 # 1HT TIP3
472 158 2 -0.847600 -16.836000 14.501000 29.745001 # 2OT TIP3
473 158 1 0.423800 -17.705000 14.796000 30.025000 # 1HT TIP3
474 158 1 0.423800 -16.160999 14.971000 30.235001 # 1HT TIP3
475 159 2 -0.847600 11.785000 16.789000 16.857000 # 2OT TIP3
476 159 1 0.423800 11.522000 17.674999 16.599001 # 1HT TIP3
477 159 1 0.423800 11.008000 16.270000 17.069000 # 1HT TIP3
478 160 2 -0.847600 -5.735000 15.561000 37.070000 # 2OT TIP3
479 160 1 0.423800 -5.161000 16.042999 37.669998 # 1HT TIP3
480 160 1 0.423800 -5.211000 15.143000 36.386002 # 1HT TIP3
481 161 2 -0.847600 6.638000 -12.416000 23.231001 # 2OT TIP3
482 161 1 0.423800 6.374000 -11.942000 24.023001 # 1HT TIP3
483 161 1 0.423800 6.768000 -13.342000 23.436001 # 1HT TIP3
484 162 2 -0.847600 -9.542000 8.972000 30.445000 # 2OT TIP3
485 162 1 0.423800 -9.622000 9.811000 29.985001 # 1HT TIP3
486 162 1 0.423800 -10.329000 8.813000 30.968000 # 1HT TIP3
487 163 2 -0.847600 12.936000 -2.739000 10.704000 # 2OT TIP3
488 163 1 0.423800 12.479000 -3.006000 11.505000 # 1HT TIP3
489 163 1 0.423800 13.780000 -2.346000 10.929000 # 1HT TIP3
490 164 2 -0.847600 -3.859000 7.359000 12.860000 # 2OT TIP3
491 164 1 0.423800 -2.999000 7.685000 13.135000 # 1HT TIP3
492 164 1 0.423800 -3.760000 6.776000 12.107000 # 1HT TIP3
493 165 2 -0.847600 -15.358000 -6.031000 21.976999 # 2OT TIP3
494 165 1 0.423800 -16.316000 -6.031000 21.916000 # 1HT TIP3
495 165 1 0.423800 -15.090000 -5.808000 22.868999 # 1HT TIP3
496 166 2 -0.847600 -17.863001 0.712000 35.437000 # 2OT TIP3